+ 0.1 0 2 tcp 40 ------- 1 0.0 3.0 0 0
- 0.1 0 2 tcp 40 ------- 1 0.0 3.0 0 0
+ 0.1 1 2 cbr 210 ------- 2 1.0 3.1 0 1
- 0.1 1 2 cbr 210 ------- 2 1.0 3.1 0 1
+ 0.10375 1 2 cbr 210 ------- 2 1.0 3.1 1 2
- 0.10375 1 2 cbr 210 ------- 2 1.0 3.1 1 2
+ 0.1075 1 2 cbr 210 ------- 2 1.0 3.1 2 3
- 0.1075 1 2 cbr 210 ------- 2 1.0 3.1 2 3
r 0.10816 0 2 tcp 40 ------- 1 0.0 3.0 0 0
+ 0.10816 2 3 tcp 40 ------- 1 0.0 3.0 0 0
- 0.10816 2 3 tcp 40 ------- 1 0.0 3.0 0 0
r 0.10968 1 2 cbr 210 ------- 2 1.0 3.1 0 1
+ 0.10968 2 3 cbr 210 ------- 2 1.0 3.1 0 1
- 0.10968 2 3 cbr 210 ------- 2 1.0 3.1 0 1
+ 0.11125 1 2 cbr 210 ------- 2 1.0 3.1 3 4
- 0.11125 1 2 cbr 210 ------- 2 1.0 3.1 3 4
r 0.11343 1 2 cbr 210 ------- 2 1.0 3.1 1 2
+ 0.11343 2 3 cbr 210 ------- 2 1.0 3.1 1 2
- 0.11343 2 3 cbr 210 ------- 2 1.0 3.1 1 2
+ 0.115 1 2 cbr 210 ------- 2 1.0 3.1 4 5
- 0.115 1 2 cbr 210 ------- 2 1.0 3.1 4 5
r 0.11632 2 3 tcp 40 ------- 1 0.0 3.0 0 0
+ 0.11632 3 2 ack 40 ------- 1 3.0 0.0 0 6
- 0.11632 3 2 ack 40 ------- 1 3.0 0.0 0 6
r 0.11718 1 2 cbr 210 ------- 2 1.0 3.1 2 3
+ 0.11718 2 3 cbr 210 ------- 2 1.0 3.1 2 3
- 0.11718 2 3 cbr 210 ------- 2 1.0 3.1 2 3
r 0.11852 2 3 cbr 210 ------- 2 1.0 3.1 0 1
+ 0.11875 1 2 cbr 210 ------- 2 1.0 3.1 5 7
- 0.11875 1 2 cbr 210 ------- 2 1.0 3.1 5 7
r 0.12093 1 2 cbr 210 ------- 2 1.0 3.1 3 4
+ 0.12093 2 3 cbr 210 ------- 2 1.0 3.1 3 4
- 0.12093 2 3 cbr 210 ------- 2 1.0 3.1 3 4
r 0.12227 2 3 cbr 210 ------- 2 1.0 3.1 1 2
+ 0.1225 1 2 cbr 210 ------- 2 1.0 3.1 6 8
- 0.1225 1 2 cbr 210 ------- 2 1.0 3.1 6 8
r 0.12448 3 2 ack 40 ------- 1 3.0 0.0 0 6
+ 0.12448 2 0 ack 40 ------- 1 3.0 0.0 0 6
- 0.12448 2 0 ack 40 ------- 1 3.0 0.0 0 6
r 0.12468 1 2 cbr 210 ------- 2 1.0 3.1 4 5
+ 0.12468 2 3 cbr 210 ------- 2 1.0 3.1 4 5
- 0.12468 2 3 cbr 210 ------- 2 1.0 3.1 4 5
r 0.12602 2 3 cbr 210 ------- 2 1.0 3.1 2 3
+ 0.12625 1 2 cbr 210 ------- 2 1.0 3.1 7 9
- 0.12625 1 2 cbr 210 ------- 2 1.0 3.1 7 9
r 0.12843 1 2 cbr 210 ------- 2 1.0 3.1 5 7
+ 0.12843 2 3 cbr 210 ------- 2 1.0 3.1 5 7
- 0.12843 2 3 cbr 210 ------- 2 1.0 3.1 5 7
r 0.12977 2 3 cbr 210 ------- 2 1.0 3.1 3 4
+ 0.13 1 2 cbr 210 ------- 2 1.0 3.1 8 10
- 0.13 1 2 cbr 210 ------- 2 1.0 3.1 8 10
r 0.13218 1 2 cbr 210 ------- 2 1.0 3.1 6 8
+ 0.13218 2 3 cbr 210 ------- 2 1.0 3.1 6 8
- 0.13218 2 3 cbr 210 ------- 2 1.0 3.1 6 8
r 0.13264 2 0 ack 40 ------- 1 3.0 0.0 0 6
+ 0.13264 0 2 tcp 1040 ------- 1 0.0 3.0 1 11
- 0.13264 0 2 tcp 1040 ------- 1 0.0 3.0 1 11
+ 0.13264 0 2 tcp 1040 ------- 1 0.0 3.0 2 12
r 0.13352 2 3 cbr 210 ------- 2 1.0 3.1 4 5
+ 0.13375 1 2 cbr 210 ------- 2 1.0 3.1 9 13
- 0.13375 1 2 cbr 210 ------- 2 1.0 3.1 9 13
r 0.13593 1 2 cbr 210 ------- 2 1.0 3.1 7 9
+ 0.13593 2 3 cbr 210 ------- 2 1.0 3.1 7 9
- 0.13593 2 3 cbr 210 ------- 2 1.0 3.1 7 9
- 0.1368 0 2 tcp 1040 ------- 1 0.0 3.0 2 12
r 0.13727 2 3 cbr 210 ------- 2 1.0 3.1 5 7
+ 0.1375 1 2 cbr 210 ------- 2 1.0 3.1 10 14
- 0.1375 1 2 cbr 210 ------- 2 1.0 3.1 10 14
r 0.13968 1 2 cbr 210 ------- 2 1.0 3.1 8 10
+ 0.13968 2 3 cbr 210 ------- 2 1.0 3.1 8 10
- 0.13968 2 3 cbr 210 ------- 2 1.0 3.1 8 10
r 0.14102 2 3 cbr 210 ------- 2 1.0 3.1 6 8
+ 0.14125 1 2 cbr 210 ------- 2 1.0 3.1 11 15
- 0.14125 1 2 cbr 210 ------- 2 1.0 3.1 11 15
r 0.14343 1 2 cbr 210 ------- 2 1.0 3.1 9 13
+ 0.14343 2 3 cbr 210 ------- 2 1.0 3.1 9 13
- 0.14343 2 3 cbr 210 ------- 2 1.0 3.1 9 13
r 0.14477 2 3 cbr 210 ------- 2 1.0 3.1 7 9
r 0.1448 0 2 tcp 1040 ------- 1 0.0 3.0 1 11
+ 0.1448 2 3 tcp 1040 ------- 1 0.0 3.0 1 11
- 0.1448 2 3 tcp 1040 ------- 1 0.0 3.0 1 11
+ 0.145 1 2 cbr 210 ------- 2 1.0 3.1 12 16
- 0.145 1 2 cbr 210 ------- 2 1.0 3.1 12 16
r 0.14718 1 2 cbr 210 ------- 2 1.0 3.1 10 14
+ 0.14718 2 3 cbr 210 ------- 2 1.0 3.1 10 14
r 0.14852 2 3 cbr 210 ------- 2 1.0 3.1 8 10
+ 0.14875 1 2 cbr 210 ------- 2 1.0 3.1 13 17
- 0.14875 1 2 cbr 210 ------- 2 1.0 3.1 13 17
r 0.14896 0 2 tcp 1040 ------- 1 0.0 3.0 2 12
+ 0.14896 2 3 tcp 1040 ------- 1 0.0 3.0 2 12
- 0.14896 2 3 cbr 210 ------- 2 1.0 3.1 10 14
- 0.1498 2 3 tcp 1040 ------- 1 0.0 3.0 2 12
r 0.15093 1 2 cbr 210 ------- 2 1.0 3.1 11 15
+ 0.15093 2 3 cbr 210 ------- 2 1.0 3.1 11 15
r 0.15227 2 3 cbr 210 ------- 2 1.0 3.1 9 13
+ 0.1525 1 2 cbr 210 ------- 2 1.0 3.1 14 18
- 0.1525 1 2 cbr 210 ------- 2 1.0 3.1 14 18
- 0.15396 2 3 cbr 210 ------- 2 1.0 3.1 11 15
r 0.15468 1 2 cbr 210 ------- 2 1.0 3.1 12 16
+ 0.15468 2 3 cbr 210 ------- 2 1.0 3.1 12 16
- 0.1548 2 3 cbr 210 ------- 2 1.0 3.1 12 16
+ 0.15625 1 2 cbr 210 ------- 2 1.0 3.1 15 19
- 0.15625 1 2 cbr 210 ------- 2 1.0 3.1 15 19
r 0.15696 2 3 tcp 1040 ------- 1 0.0 3.0 1 11
+ 0.15696 3 2 ack 40 ------- 1 3.0 0.0 1 20
- 0.15696 3 2 ack 40 ------- 1 3.0 0.0 1 20
r 0.1578 2 3 cbr 210 ------- 2 1.0 3.1 10 14
r 0.15843 1 2 cbr 210 ------- 2 1.0 3.1 13 17
+ 0.15843 2 3 cbr 210 ------- 2 1.0 3.1 13 17
- 0.15843 2 3 cbr 210 ------- 2 1.0 3.1 13 17
+ 0.16 1 2 cbr 210 ------- 2 1.0 3.1 16 21
- 0.16 1 2 cbr 210 ------- 2 1.0 3.1 16 21
r 0.16196 2 3 tcp 1040 ------- 1 0.0 3.0 2 12
+ 0.16196 3 2 ack 40 ------- 1 3.0 0.0 2 22
- 0.16196 3 2 ack 40 ------- 1 3.0 0.0 2 22
r 0.16218 1 2 cbr 210 ------- 2 1.0 3.1 14 18
+ 0.16218 2 3 cbr 210 ------- 2 1.0 3.1 14 18
- 0.16218 2 3 cbr 210 ------- 2 1.0 3.1 14 18
r 0.1628 2 3 cbr 210 ------- 2 1.0 3.1 11 15
r 0.16364 2 3 cbr 210 ------- 2 1.0 3.1 12 16
+ 0.16375 1 2 cbr 210 ------- 2 1.0 3.1 17 23
- 0.16375 1 2 cbr 210 ------- 2 1.0 3.1 17 23
r 0.16512 3 2 ack 40 ------- 1 3.0 0.0 1 20
+ 0.16512 2 0 ack 40 ------- 1 3.0 0.0 1 20
- 0.16512 2 0 ack 40 ------- 1 3.0 0.0 1 20
r 0.16593 1 2 cbr 210 ------- 2 1.0 3.1 15 19
+ 0.16593 2 3 cbr 210 ------- 2 1.0 3.1 15 19
- 0.16593 2 3 cbr 210 ------- 2 1.0 3.1 15 19
r 0.16727 2 3 cbr 210 ------- 2 1.0 3.1 13 17
+ 0.1675 1 2 cbr 210 ------- 2 1.0 3.1 18 24
- 0.1675 1 2 cbr 210 ------- 2 1.0 3.1 18 24
r 0.16968 1 2 cbr 210 ------- 2 1.0 3.1 16 21
+ 0.16968 2 3 cbr 210 ------- 2 1.0 3.1 16 21
- 0.16968 2 3 cbr 210 ------- 2 1.0 3.1 16 21
r 0.17012 3 2 ack 40 ------- 1 3.0 0.0 2 22
+ 0.17012 2 0 ack 40 ------- 1 3.0 0.0 2 22
- 0.17012 2 0 ack 40 ------- 1 3.0 0.0 2 22
r 0.17102 2 3 cbr 210 ------- 2 1.0 3.1 14 18
+ 0.17125 1 2 cbr 210 ------- 2 1.0 3.1 19 25
- 0.17125 1 2 cbr 210 ------- 2 1.0 3.1 19 25
r 0.17328 2 0 ack 40 ------- 1 3.0 0.0 1 20
+ 0.17328 0 2 tcp 1040 ------- 1 0.0 3.0 3 26
- 0.17328 0 2 tcp 1040 ------- 1 0.0 3.0 3 26
+ 0.17328 0 2 tcp 1040 ------- 1 0.0 3.0 4 27
r 0.17343 1 2 cbr 210 ------- 2 1.0 3.1 17 23
+ 0.17343 2 3 cbr 210 ------- 2 1.0 3.1 17 23
- 0.17343 2 3 cbr 210 ------- 2 1.0 3.1 17 23
r 0.17477 2 3 cbr 210 ------- 2 1.0 3.1 15 19
+ 0.175 1 2 cbr 210 ------- 2 1.0 3.1 20 28
- 0.175 1 2 cbr 210 ------- 2 1.0 3.1 20 28
r 0.17718 1 2 cbr 210 ------- 2 1.0 3.1 18 24
+ 0.17718 2 3 cbr 210 ------- 2 1.0 3.1 18 24
- 0.17718 2 3 cbr 210 ------- 2 1.0 3.1 18 24
- 0.17744 0 2 tcp 1040 ------- 1 0.0 3.0 4 27
r 0.17828 2 0 ack 40 ------- 1 3.0 0.0 2 22
+ 0.17828 0 2 tcp 1040 ------- 1 0.0 3.0 5 29
+ 0.17828 0 2 tcp 1040 ------- 1 0.0 3.0 6 30
r 0.17852 2 3 cbr 210 ------- 2 1.0 3.1 16 21
+ 0.17875 1 2 cbr 210 ------- 2 1.0 3.1 21 31
- 0.17875 1 2 cbr 210 ------- 2 1.0 3.1 21 31
r 0.18093 1 2 cbr 210 ------- 2 1.0 3.1 19 25
+ 0.18093 2 3 cbr 210 ------- 2 1.0 3.1 19 25
- 0.18093 2 3 cbr 210 ------- 2 1.0 3.1 19 25
- 0.1816 0 2 tcp 1040 ------- 1 0.0 3.0 5 29
r 0.18227 2 3 cbr 210 ------- 2 1.0 3.1 17 23
+ 0.1825 1 2 cbr 210 ------- 2 1.0 3.1 22 32
- 0.1825 1 2 cbr 210 ------- 2 1.0 3.1 22 32
r 0.18468 1 2 cbr 210 ------- 2 1.0 3.1 20 28
+ 0.18468 2 3 cbr 210 ------- 2 1.0 3.1 20 28
- 0.18468 2 3 cbr 210 ------- 2 1.0 3.1 20 28
r 0.18544 0 2 tcp 1040 ------- 1 0.0 3.0 3 26
+ 0.18544 2 3 tcp 1040 ------- 1 0.0 3.0 3 26
- 0.18552 2 3 tcp 1040 ------- 1 0.0 3.0 3 26
- 0.18576 0 2 tcp 1040 ------- 1 0.0 3.0 6 30
r 0.18602 2 3 cbr 210 ------- 2 1.0 3.1 18 24
+ 0.18625 1 2 cbr 210 ------- 2 1.0 3.1 23 33
- 0.18625 1 2 cbr 210 ------- 2 1.0 3.1 23 33
r 0.18843 1 2 cbr 210 ------- 2 1.0 3.1 21 31
+ 0.18843 2 3 cbr 210 ------- 2 1.0 3.1 21 31
r 0.1896 0 2 tcp 1040 ------- 1 0.0 3.0 4 27
+ 0.1896 2 3 tcp 1040 ------- 1 0.0 3.0 4 27
- 0.18968 2 3 cbr 210 ------- 2 1.0 3.1 21 31
r 0.18977 2 3 cbr 210 ------- 2 1.0 3.1 19 25
+ 0.19 1 2 cbr 210 ------- 2 1.0 3.1 24 34
- 0.19 1 2 cbr 210 ------- 2 1.0 3.1 24 34
- 0.19052 2 3 tcp 1040 ------- 1 0.0 3.0 4 27
r 0.19218 1 2 cbr 210 ------- 2 1.0 3.1 22 32
+ 0.19218 2 3 cbr 210 ------- 2 1.0 3.1 22 32
r 0.19352 2 3 cbr 210 ------- 2 1.0 3.1 20 28
+ 0.19375 1 2 cbr 210 ------- 2 1.0 3.1 25 35
- 0.19375 1 2 cbr 210 ------- 2 1.0 3.1 25 35
r 0.19376 0 2 tcp 1040 ------- 1 0.0 3.0 5 29
+ 0.19376 2 3 tcp 1040 ------- 1 0.0 3.0 5 29
- 0.19468 2 3 cbr 210 ------- 2 1.0 3.1 22 32
- 0.19552 2 3 tcp 1040 ------- 1 0.0 3.0 5 29
r 0.19593 1 2 cbr 210 ------- 2 1.0 3.1 23 33
+ 0.19593 2 3 cbr 210 ------- 2 1.0 3.1 23 33
+ 0.1975 1 2 cbr 210 ------- 2 1.0 3.1 26 36
- 0.1975 1 2 cbr 210 ------- 2 1.0 3.1 26 36
r 0.19768 2 3 tcp 1040 ------- 1 0.0 3.0 3 26
+ 0.19768 3 2 ack 40 ------- 1 3.0 0.0 3 37
- 0.19768 3 2 ack 40 ------- 1 3.0 0.0 3 37
r 0.19792 0 2 tcp 1040 ------- 1 0.0 3.0 6 30
+ 0.19792 2 3 tcp 1040 ------- 1 0.0 3.0 6 30
r 0.19852 2 3 cbr 210 ------- 2 1.0 3.1 21 31
r 0.19968 1 2 cbr 210 ------- 2 1.0 3.1 24 34
+ 0.19968 2 3 cbr 210 ------- 2 1.0 3.1 24 34
- 0.19968 2 3 cbr 210 ------- 2 1.0 3.1 23 33
- 0.20052 2 3 tcp 1040 ------- 1 0.0 3.0 6 30
+ 0.20125 1 2 cbr 210 ------- 2 1.0 3.1 27 38
- 0.20125 1 2 cbr 210 ------- 2 1.0 3.1 27 38
r 0.20268 2 3 tcp 1040 ------- 1 0.0 3.0 4 27
+ 0.20268 3 2 ack 40 ------- 1 3.0 0.0 4 39
- 0.20268 3 2 ack 40 ------- 1 3.0 0.0 4 39
r 0.20343 1 2 cbr 210 ------- 2 1.0 3.1 25 35
+ 0.20343 2 3 cbr 210 ------- 2 1.0 3.1 25 35
r 0.20352 2 3 cbr 210 ------- 2 1.0 3.1 22 32
- 0.20468 2 3 cbr 210 ------- 2 1.0 3.1 24 34
+ 0.205 1 2 cbr 210 ------- 2 1.0 3.1 28 40
- 0.205 1 2 cbr 210 ------- 2 1.0 3.1 28 40
- 0.20552 2 3 cbr 210 ------- 2 1.0 3.1 25 35
r 0.20584 3 2 ack 40 ------- 1 3.0 0.0 3 37
+ 0.20584 2 0 ack 40 ------- 1 3.0 0.0 3 37
- 0.20584 2 0 ack 40 ------- 1 3.0 0.0 3 37
r 0.20718 1 2 cbr 210 ------- 2 1.0 3.1 26 36
+ 0.20718 2 3 cbr 210 ------- 2 1.0 3.1 26 36
- 0.20718 2 3 cbr 210 ------- 2 1.0 3.1 26 36
r 0.20768 2 3 tcp 1040 ------- 1 0.0 3.0 5 29
+ 0.20768 3 2 ack 40 ------- 1 3.0 0.0 5 41
- 0.20768 3 2 ack 40 ------- 1 3.0 0.0 5 41
r 0.20852 2 3 cbr 210 ------- 2 1.0 3.1 23 33
+ 0.20875 1 2 cbr 210 ------- 2 1.0 3.1 29 42
- 0.20875 1 2 cbr 210 ------- 2 1.0 3.1 29 42
r 0.21084 3 2 ack 40 ------- 1 3.0 0.0 4 39
+ 0.21084 2 0 ack 40 ------- 1 3.0 0.0 4 39
- 0.21084 2 0 ack 40 ------- 1 3.0 0.0 4 39
r 0.21093 1 2 cbr 210 ------- 2 1.0 3.1 27 38
+ 0.21093 2 3 cbr 210 ------- 2 1.0 3.1 27 38
- 0.21093 2 3 cbr 210 ------- 2 1.0 3.1 27 38
+ 0.2125 1 2 cbr 210 ------- 2 1.0 3.1 30 43
- 0.2125 1 2 cbr 210 ------- 2 1.0 3.1 30 43
r 0.21268 2 3 tcp 1040 ------- 1 0.0 3.0 6 30
+ 0.21268 3 2 ack 40 ------- 1 3.0 0.0 6 44
- 0.21268 3 2 ack 40 ------- 1 3.0 0.0 6 44
r 0.21352 2 3 cbr 210 ------- 2 1.0 3.1 24 34
r 0.214 2 0 ack 40 ------- 1 3.0 0.0 3 37
+ 0.214 0 2 tcp 1040 ------- 1 0.0 3.0 7 45
- 0.214 0 2 tcp 1040 ------- 1 0.0 3.0 7 45
+ 0.214 0 2 tcp 1040 ------- 1 0.0 3.0 8 46
r 0.21436 2 3 cbr 210 ------- 2 1.0 3.1 25 35
r 0.21468 1 2 cbr 210 ------- 2 1.0 3.1 28 40
+ 0.21468 2 3 cbr 210 ------- 2 1.0 3.1 28 40
- 0.21468 2 3 cbr 210 ------- 2 1.0 3.1 28 40
r 0.21584 3 2 ack 40 ------- 1 3.0 0.0 5 41
+ 0.21584 2 0 ack 40 ------- 1 3.0 0.0 5 41
- 0.21584 2 0 ack 40 ------- 1 3.0 0.0 5 41
r 0.21602 2 3 cbr 210 ------- 2 1.0 3.1 26 36
+ 0.21625 1 2 cbr 210 ------- 2 1.0 3.1 31 47
- 0.21625 1 2 cbr 210 ------- 2 1.0 3.1 31 47
- 0.21816 0 2 tcp 1040 ------- 1 0.0 3.0 8 46
r 0.21843 1 2 cbr 210 ------- 2 1.0 3.1 29 42
+ 0.21843 2 3 cbr 210 ------- 2 1.0 3.1 29 42
- 0.21843 2 3 cbr 210 ------- 2 1.0 3.1 29 42
r 0.219 2 0 ack 40 ------- 1 3.0 0.0 4 39
+ 0.219 0 2 tcp 1040 ------- 1 0.0 3.0 9 48
+ 0.219 0 2 tcp 1040 ------- 1 0.0 3.0 10 49
r 0.21977 2 3 cbr 210 ------- 2 1.0 3.1 27 38
+ 0.22 1 2 cbr 210 ------- 2 1.0 3.1 32 50
- 0.22 1 2 cbr 210 ------- 2 1.0 3.1 32 50
r 0.22084 3 2 ack 40 ------- 1 3.0 0.0 6 44
+ 0.22084 2 0 ack 40 ------- 1 3.0 0.0 6 44
- 0.22084 2 0 ack 40 ------- 1 3.0 0.0 6 44
r 0.22218 1 2 cbr 210 ------- 2 1.0 3.1 30 43
+ 0.22218 2 3 cbr 210 ------- 2 1.0 3.1 30 43
- 0.22218 2 3 cbr 210 ------- 2 1.0 3.1 30 43
- 0.22232 0 2 tcp 1040 ------- 1 0.0 3.0 9 48
r 0.22352 2 3 cbr 210 ------- 2 1.0 3.1 28 40
+ 0.22375 1 2 cbr 210 ------- 2 1.0 3.1 33 51
- 0.22375 1 2 cbr 210 ------- 2 1.0 3.1 33 51
r 0.224 2 0 ack 40 ------- 1 3.0 0.0 5 41
+ 0.224 0 2 tcp 1040 ------- 1 0.0 3.0 11 52
+ 0.224 0 2 tcp 1040 ------- 1 0.0 3.0 12 53
d 0.224 0 2 tcp 1040 ------- 1 0.0 3.0 12 53
r 0.22593 1 2 cbr 210 ------- 2 1.0 3.1 31 47
+ 0.22593 2 3 cbr 210 ------- 2 1.0 3.1 31 47
- 0.22593 2 3 cbr 210 ------- 2 1.0 3.1 31 47
r 0.22616 0 2 tcp 1040 ------- 1 0.0 3.0 7 45
+ 0.22616 2 3 tcp 1040 ------- 1 0.0 3.0 7 45
- 0.22648 0 2 tcp 1040 ------- 1 0.0 3.0 10 49
- 0.22677 2 3 tcp 1040 ------- 1 0.0 3.0 7 45
r 0.22727 2 3 cbr 210 ------- 2 1.0 3.1 29 42
+ 0.2275 1 2 cbr 210 ------- 2 1.0 3.1 34 54
- 0.2275 1 2 cbr 210 ------- 2 1.0 3.1 34 54
r 0.229 2 0 ack 40 ------- 1 3.0 0.0 6 44
+ 0.229 0 2 tcp 1040 ------- 1 0.0 3.0 13 55
+ 0.229 0 2 tcp 1040 ------- 1 0.0 3.0 14 56
d 0.229 0 2 tcp 1040 ------- 1 0.0 3.0 14 56
r 0.22968 1 2 cbr 210 ------- 2 1.0 3.1 32 50
+ 0.22968 2 3 cbr 210 ------- 2 1.0 3.1 32 50
r 0.23032 0 2 tcp 1040 ------- 1 0.0 3.0 8 46
+ 0.23032 2 3 tcp 1040 ------- 1 0.0 3.0 8 46
- 0.23064 0 2 tcp 1040 ------- 1 0.0 3.0 11 52
- 0.23093 2 3 cbr 210 ------- 2 1.0 3.1 32 50
r 0.23102 2 3 cbr 210 ------- 2 1.0 3.1 30 43
+ 0.23125 1 2 cbr 210 ------- 2 1.0 3.1 35 57
- 0.23125 1 2 cbr 210 ------- 2 1.0 3.1 35 57
- 0.23177 2 3 tcp 1040 ------- 1 0.0 3.0 8 46
r 0.23343 1 2 cbr 210 ------- 2 1.0 3.1 33 51
+ 0.23343 2 3 cbr 210 ------- 2 1.0 3.1 33 51
r 0.23448 0 2 tcp 1040 ------- 1 0.0 3.0 9 48
+ 0.23448 2 3 tcp 1040 ------- 1 0.0 3.0 9 48
r 0.23477 2 3 cbr 210 ------- 2 1.0 3.1 31 47
- 0.2348 0 2 tcp 1040 ------- 1 0.0 3.0 13 55
+ 0.235 1 2 cbr 210 ------- 2 1.0 3.1 36 58
- 0.235 1 2 cbr 210 ------- 2 1.0 3.1 36 58
- 0.23593 2 3 cbr 210 ------- 2 1.0 3.1 33 51
- 0.23677 2 3 tcp 1040 ------- 1 0.0 3.0 9 48
r 0.23718 1 2 cbr 210 ------- 2 1.0 3.1 34 54
+ 0.23718 2 3 cbr 210 ------- 2 1.0 3.1 34 54
r 0.23864 0 2 tcp 1040 ------- 1 0.0 3.0 10 49
+ 0.23864 2 3 tcp 1040 ------- 1 0.0 3.0 10 49
+ 0.23875 1 2 cbr 210 ------- 2 1.0 3.1 37 59
- 0.23875 1 2 cbr 210 ------- 2 1.0 3.1 37 59
r 0.23893 2 3 tcp 1040 ------- 1 0.0 3.0 7 45
+ 0.23893 3 2 ack 40 ------- 1 3.0 0.0 7 60
- 0.23893 3 2 ack 40 ------- 1 3.0 0.0 7 60
r 0.23977 2 3 cbr 210 ------- 2 1.0 3.1 32 50
r 0.24093 1 2 cbr 210 ------- 2 1.0 3.1 35 57
+ 0.24093 2 3 cbr 210 ------- 2 1.0 3.1 35 57
- 0.24093 2 3 cbr 210 ------- 2 1.0 3.1 34 54
- 0.24177 2 3 tcp 1040 ------- 1 0.0 3.0 10 49
+ 0.2425 1 2 cbr 210 ------- 2 1.0 3.1 38 61
- 0.2425 1 2 cbr 210 ------- 2 1.0 3.1 38 61
r 0.2428 0 2 tcp 1040 ------- 1 0.0 3.0 11 52
+ 0.2428 2 3 tcp 1040 ------- 1 0.0 3.0 11 52
r 0.24393 2 3 tcp 1040 ------- 1 0.0 3.0 8 46
+ 0.24393 3 2 ack 40 ------- 1 3.0 0.0 8 62
- 0.24393 3 2 ack 40 ------- 1 3.0 0.0 8 62
r 0.24468 1 2 cbr 210 ------- 2 1.0 3.1 36 58
+ 0.24468 2 3 cbr 210 ------- 2 1.0 3.1 36 58
r 0.24477 2 3 cbr 210 ------- 2 1.0 3.1 33 51
- 0.24593 2 3 cbr 210 ------- 2 1.0 3.1 35 57
+ 0.24625 1 2 cbr 210 ------- 2 1.0 3.1 39 63
- 0.24625 1 2 cbr 210 ------- 2 1.0 3.1 39 63
- 0.24677 2 3 tcp 1040 ------- 1 0.0 3.0 11 52
r 0.24696 0 2 tcp 1040 ------- 1 0.0 3.0 13 55
+ 0.24696 2 3 tcp 1040 ------- 1 0.0 3.0 13 55
r 0.24709 3 2 ack 40 ------- 1 3.0 0.0 7 60
+ 0.24709 2 0 ack 40 ------- 1 3.0 0.0 7 60
- 0.24709 2 0 ack 40 ------- 1 3.0 0.0 7 60
r 0.24843 1 2 cbr 210 ------- 2 1.0 3.1 37 59
+ 0.24843 2 3 cbr 210 ------- 2 1.0 3.1 37 59
r 0.24893 2 3 tcp 1040 ------- 1 0.0 3.0 9 48
+ 0.24893 3 2 ack 40 ------- 1 3.0 0.0 9 64
- 0.24893 3 2 ack 40 ------- 1 3.0 0.0 9 64
r 0.24977 2 3 cbr 210 ------- 2 1.0 3.1 34 54
+ 0.25 1 2 cbr 210 ------- 2 1.0 3.1 40 65
- 0.25 1 2 cbr 210 ------- 2 1.0 3.1 40 65
- 0.25093 2 3 cbr 210 ------- 2 1.0 3.1 36 58
- 0.25177 2 3 tcp 1040 ------- 1 0.0 3.0 13 55
r 0.25209 3 2 ack 40 ------- 1 3.0 0.0 8 62
+ 0.25209 2 0 ack 40 ------- 1 3.0 0.0 8 62
- 0.25209 2 0 ack 40 ------- 1 3.0 0.0 8 62
r 0.25218 1 2 cbr 210 ------- 2 1.0 3.1 38 61
+ 0.25218 2 3 cbr 210 ------- 2 1.0 3.1 38 61
+ 0.25375 1 2 cbr 210 ------- 2 1.0 3.1 41 66
- 0.25375 1 2 cbr 210 ------- 2 1.0 3.1 41 66
r 0.25393 2 3 tcp 1040 ------- 1 0.0 3.0 10 49
+ 0.25393 3 2 ack 40 ------- 1 3.0 0.0 10 67
- 0.25393 3 2 ack 40 ------- 1 3.0 0.0 10 67
r 0.25477 2 3 cbr 210 ------- 2 1.0 3.1 35 57
r 0.25525 2 0 ack 40 ------- 1 3.0 0.0 7 60
+ 0.25525 0 2 tcp 1040 ------- 1 0.0 3.0 15 68
- 0.25525 0 2 tcp 1040 ------- 1 0.0 3.0 15 68
+ 0.25525 0 2 tcp 1040 ------- 1 0.0 3.0 16 69
r 0.25593 1 2 cbr 210 ------- 2 1.0 3.1 39 63
+ 0.25593 2 3 cbr 210 ------- 2 1.0 3.1 39 63
- 0.25593 2 3 cbr 210 ------- 2 1.0 3.1 37 59
- 0.25677 2 3 cbr 210 ------- 2 1.0 3.1 38 61
r 0.25709 3 2 ack 40 ------- 1 3.0 0.0 9 64
+ 0.25709 2 0 ack 40 ------- 1 3.0 0.0 9 64
- 0.25709 2 0 ack 40 ------- 1 3.0 0.0 9 64
+ 0.2575 1 2 cbr 210 ------- 2 1.0 3.1 42 70
- 0.2575 1 2 cbr 210 ------- 2 1.0 3.1 42 70
- 0.25761 2 3 cbr 210 ------- 2 1.0 3.1 39 63
r 0.25893 2 3 tcp 1040 ------- 1 0.0 3.0 11 52
+ 0.25893 3 2 ack 40 ------- 1 3.0 0.0 11 71
- 0.25893 3 2 ack 40 ------- 1 3.0 0.0 11 71
- 0.25941 0 2 tcp 1040 ------- 1 0.0 3.0 16 69
r 0.25968 1 2 cbr 210 ------- 2 1.0 3.1 40 65
+ 0.25968 2 3 cbr 210 ------- 2 1.0 3.1 40 65
- 0.25968 2 3 cbr 210 ------- 2 1.0 3.1 40 65
r 0.25977 2 3 cbr 210 ------- 2 1.0 3.1 36 58
r 0.26025 2 0 ack 40 ------- 1 3.0 0.0 8 62
+ 0.26025 0 2 tcp 1040 ------- 1 0.0 3.0 17 72
+ 0.26025 0 2 tcp 1040 ------- 1 0.0 3.0 18 73
+ 0.26125 1 2 cbr 210 ------- 2 1.0 3.1 43 74
- 0.26125 1 2 cbr 210 ------- 2 1.0 3.1 43 74
r 0.26209 3 2 ack 40 ------- 1 3.0 0.0 10 67
+ 0.26209 2 0 ack 40 ------- 1 3.0 0.0 10 67
- 0.26209 2 0 ack 40 ------- 1 3.0 0.0 10 67
r 0.26343 1 2 cbr 210 ------- 2 1.0 3.1 41 66
+ 0.26343 2 3 cbr 210 ------- 2 1.0 3.1 41 66
- 0.26343 2 3 cbr 210 ------- 2 1.0 3.1 41 66
- 0.26357 0 2 tcp 1040 ------- 1 0.0 3.0 17 72
r 0.26393 2 3 tcp 1040 ------- 1 0.0 3.0 13 55
+ 0.26393 3 2 ack 40 ------- 1 3.0 0.0 11 75
- 0.26393 3 2 ack 40 ------- 1 3.0 0.0 11 75
r 0.26477 2 3 cbr 210 ------- 2 1.0 3.1 37 59
+ 0.265 1 2 cbr 210 ------- 2 1.0 3.1 44 76
- 0.265 1 2 cbr 210 ------- 2 1.0 3.1 44 76
r 0.26525 2 0 ack 40 ------- 1 3.0 0.0 9 64
+ 0.26525 0 2 tcp 1040 ------- 1 0.0 3.0 19 77
+ 0.26525 0 2 tcp 1040 ------- 1 0.0 3.0 20 78
d 0.26525 0 2 tcp 1040 ------- 1 0.0 3.0 20 78
r 0.26561 2 3 cbr 210 ------- 2 1.0 3.1 38 61
r 0.26645 2 3 cbr 210 ------- 2 1.0 3.1 39 63
r 0.26709 3 2 ack 40 ------- 1 3.0 0.0 11 71
+ 0.26709 2 0 ack 40 ------- 1 3.0 0.0 11 71
- 0.26709 2 0 ack 40 ------- 1 3.0 0.0 11 71
r 0.26718 1 2 cbr 210 ------- 2 1.0 3.1 42 70
+ 0.26718 2 3 cbr 210 ------- 2 1.0 3.1 42 70
- 0.26718 2 3 cbr 210 ------- 2 1.0 3.1 42 70
r 0.26741 0 2 tcp 1040 ------- 1 0.0 3.0 15 68
+ 0.26741 2 3 tcp 1040 ------- 1 0.0 3.0 15 68
- 0.26773 0 2 tcp 1040 ------- 1 0.0 3.0 18 73
- 0.26802 2 3 tcp 1040 ------- 1 0.0 3.0 15 68
r 0.26852 2 3 cbr 210 ------- 2 1.0 3.1 40 65
+ 0.26875 1 2 cbr 210 ------- 2 1.0 3.1 45 79
- 0.26875 1 2 cbr 210 ------- 2 1.0 3.1 45 79
r 0.27025 2 0 ack 40 ------- 1 3.0 0.0 10 67
+ 0.27025 0 2 tcp 1040 ------- 1 0.0 3.0 21 80
+ 0.27025 0 2 tcp 1040 ------- 1 0.0 3.0 22 81
d 0.27025 0 2 tcp 1040 ------- 1 0.0 3.0 22 81
r 0.27093 1 2 cbr 210 ------- 2 1.0 3.1 43 74
+ 0.27093 2 3 cbr 210 ------- 2 1.0 3.1 43 74
r 0.27157 0 2 tcp 1040 ------- 1 0.0 3.0 16 69
+ 0.27157 2 3 tcp 1040 ------- 1 0.0 3.0 16 69
- 0.27189 0 2 tcp 1040 ------- 1 0.0 3.0 19 77
r 0.27209 3 2 ack 40 ------- 1 3.0 0.0 11 75
+ 0.27209 2 0 ack 40 ------- 1 3.0 0.0 11 75
- 0.27209 2 0 ack 40 ------- 1 3.0 0.0 11 75
- 0.27218 2 3 cbr 210 ------- 2 1.0 3.1 43 74
r 0.27227 2 3 cbr 210 ------- 2 1.0 3.1 41 66
+ 0.2725 1 2 cbr 210 ------- 2 1.0 3.1 46 82
- 0.2725 1 2 cbr 210 ------- 2 1.0 3.1 46 82
- 0.27302 2 3 tcp 1040 ------- 1 0.0 3.0 16 69
r 0.27468 1 2 cbr 210 ------- 2 1.0 3.1 44 76
+ 0.27468 2 3 cbr 210 ------- 2 1.0 3.1 44 76
r 0.27525 2 0 ack 40 ------- 1 3.0 0.0 11 71
+ 0.27525 0 2 tcp 1040 ------- 1 0.0 3.0 23 83
+ 0.27525 0 2 tcp 1040 ------- 1 0.0 3.0 24 84
d 0.27525 0 2 tcp 1040 ------- 1 0.0 3.0 24 84
r 0.27573 0 2 tcp 1040 ------- 1 0.0 3.0 17 72
+ 0.27573 2 3 tcp 1040 ------- 1 0.0 3.0 17 72
r 0.27602 2 3 cbr 210 ------- 2 1.0 3.1 42 70
- 0.27605 0 2 tcp 1040 ------- 1 0.0 3.0 21 80
+ 0.27625 1 2 cbr 210 ------- 2 1.0 3.1 47 85
- 0.27625 1 2 cbr 210 ------- 2 1.0 3.1 47 85
- 0.27718 2 3 cbr 210 ------- 2 1.0 3.1 44 76
- 0.27802 2 3 tcp 1040 ------- 1 0.0 3.0 17 72
r 0.27843 1 2 cbr 210 ------- 2 1.0 3.1 45 79
+ 0.27843 2 3 cbr 210 ------- 2 1.0 3.1 45 79
r 0.27989 0 2 tcp 1040 ------- 1 0.0 3.0 18 73
+ 0.27989 2 3 tcp 1040 ------- 1 0.0 3.0 18 73
+ 0.28 1 2 cbr 210 ------- 2 1.0 3.1 48 86
- 0.28 1 2 cbr 210 ------- 2 1.0 3.1 48 86
r 0.28018 2 3 tcp 1040 ------- 1 0.0 3.0 15 68
+ 0.28018 3 2 ack 40 ------- 1 3.0 0.0 11 87
- 0.28018 3 2 ack 40 ------- 1 3.0 0.0 11 87
- 0.28021 0 2 tcp 1040 ------- 1 0.0 3.0 23 83
r 0.28025 2 0 ack 40 ------- 1 3.0 0.0 11 75
+ 0.28025 0 2 tcp 1040 ------- 1 0.0 3.0 25 88
r 0.28102 2 3 cbr 210 ------- 2 1.0 3.1 43 74
r 0.28218 1 2 cbr 210 ------- 2 1.0 3.1 46 82
+ 0.28218 2 3 cbr 210 ------- 2 1.0 3.1 46 82
- 0.28218 2 3 cbr 210 ------- 2 1.0 3.1 45 79
- 0.28302 2 3 tcp 1040 ------- 1 0.0 3.0 18 73
+ 0.28375 1 2 cbr 210 ------- 2 1.0 3.1 49 89
- 0.28375 1 2 cbr 210 ------- 2 1.0 3.1 49 89
r 0.28405 0 2 tcp 1040 ------- 1 0.0 3.0 19 77
+ 0.28405 2 3 tcp 1040 ------- 1 0.0 3.0 19 77
- 0.28437 0 2 tcp 1040 ------- 1 0.0 3.0 25 88
r 0.28518 2 3 tcp 1040 ------- 1 0.0 3.0 16 69
+ 0.28518 3 2 ack 40 ------- 1 3.0 0.0 11 90
- 0.28518 3 2 ack 40 ------- 1 3.0 0.0 11 90
r 0.28593 1 2 cbr 210 ------- 2 1.0 3.1 47 85
+ 0.28593 2 3 cbr 210 ------- 2 1.0 3.1 47 85
r 0.28602 2 3 cbr 210 ------- 2 1.0 3.1 44 76
- 0.28718 2 3 cbr 210 ------- 2 1.0 3.1 46 82
+ 0.2875 1 2 cbr 210 ------- 2 1.0 3.1 50 91
- 0.2875 1 2 cbr 210 ------- 2 1.0 3.1 50 91
- 0.28802 2 3 tcp 1040 ------- 1 0.0 3.0 19 77
r 0.28821 0 2 tcp 1040 ------- 1 0.0 3.0 21 80
+ 0.28821 2 3 tcp 1040 ------- 1 0.0 3.0 21 80
r 0.28834 3 2 ack 40 ------- 1 3.0 0.0 11 87
+ 0.28834 2 0 ack 40 ------- 1 3.0 0.0 11 87
- 0.28834 2 0 ack 40 ------- 1 3.0 0.0 11 87
r 0.28968 1 2 cbr 210 ------- 2 1.0 3.1 48 86
+ 0.28968 2 3 cbr 210 ------- 2 1.0 3.1 48 86
r 0.29018 2 3 tcp 1040 ------- 1 0.0 3.0 17 72
+ 0.29018 3 2 ack 40 ------- 1 3.0 0.0 11 92
- 0.29018 3 2 ack 40 ------- 1 3.0 0.0 11 92
r 0.29102 2 3 cbr 210 ------- 2 1.0 3.1 45 79
+ 0.29125 1 2 cbr 210 ------- 2 1.0 3.1 51 93
- 0.29125 1 2 cbr 210 ------- 2 1.0 3.1 51 93
- 0.29218 2 3 cbr 210 ------- 2 1.0 3.1 47 85
r 0.29237 0 2 tcp 1040 ------- 1 0.0 3.0 23 83
+ 0.29237 2 3 tcp 1040 ------- 1 0.0 3.0 23 83
- 0.29302 2 3 tcp 1040 ------- 1 0.0 3.0 21 80
r 0.29334 3 2 ack 40 ------- 1 3.0 0.0 11 90
+ 0.29334 2 0 ack 40 ------- 1 3.0 0.0 11 90
- 0.29334 2 0 ack 40 ------- 1 3.0 0.0 11 90
r 0.29343 1 2 cbr 210 ------- 2 1.0 3.1 49 89
+ 0.29343 2 3 cbr 210 ------- 2 1.0 3.1 49 89
+ 0.295 1 2 cbr 210 ------- 2 1.0 3.1 52 94
- 0.295 1 2 cbr 210 ------- 2 1.0 3.1 52 94
r 0.29518 2 3 tcp 1040 ------- 1 0.0 3.0 18 73
+ 0.29518 3 2 ack 40 ------- 1 3.0 0.0 11 95
- 0.29518 3 2 ack 40 ------- 1 3.0 0.0 11 95
r 0.29602 2 3 cbr 210 ------- 2 1.0 3.1 46 82
r 0.2965 2 0 ack 40 ------- 1 3.0 0.0 11 87
+ 0.2965 0 2 tcp 1040 ------- 1 0.0 3.0 26 96
- 0.2965 0 2 tcp 1040 ------- 1 0.0 3.0 26 96
r 0.29653 0 2 tcp 1040 ------- 1 0.0 3.0 25 88
+ 0.29653 2 3 tcp 1040 ------- 1 0.0 3.0 25 88
r 0.29718 1 2 cbr 210 ------- 2 1.0 3.1 50 91
+ 0.29718 2 3 cbr 210 ------- 2 1.0 3.1 50 91
- 0.29718 2 3 cbr 210 ------- 2 1.0 3.1 48 86
- 0.29802 2 3 tcp 1040 ------- 1 0.0 3.0 23 83
r 0.29834 3 2 ack 40 ------- 1 3.0 0.0 11 92
+ 0.29834 2 0 ack 40 ------- 1 3.0 0.0 11 92
- 0.29834 2 0 ack 40 ------- 1 3.0 0.0 11 92
+ 0.29875 1 2 cbr 210 ------- 2 1.0 3.1 53 97
- 0.29875 1 2 cbr 210 ------- 2 1.0 3.1 53 97
r 0.30018 2 3 tcp 1040 ------- 1 0.0 3.0 19 77
+ 0.30018 3 2 ack 40 ------- 1 3.0 0.0 11 98
- 0.30018 3 2 ack 40 ------- 1 3.0 0.0 11 98
r 0.30093 1 2 cbr 210 ------- 2 1.0 3.1 51 93
+ 0.30093 2 3 cbr 210 ------- 2 1.0 3.1 51 93
r 0.30102 2 3 cbr 210 ------- 2 1.0 3.1 47 85
r 0.3015 2 0 ack 40 ------- 1 3.0 0.0 11 90
+ 0.3015 0 2 tcp 1040 ---A--- 1 0.0 3.0 12 99
- 0.3015 0 2 tcp 1040 ---A--- 1 0.0 3.0 12 99
- 0.30218 2 3 cbr 210 ------- 2 1.0 3.1 49 89
+ 0.3025 1 2 cbr 210 ------- 2 1.0 3.1 54 100
- 0.3025 1 2 cbr 210 ------- 2 1.0 3.1 54 100
- 0.30302 2 3 tcp 1040 ------- 1 0.0 3.0 25 88
r 0.30334 3 2 ack 40 ------- 1 3.0 0.0 11 95
+ 0.30334 2 0 ack 40 ------- 1 3.0 0.0 11 95
- 0.30334 2 0 ack 40 ------- 1 3.0 0.0 11 95
r 0.30468 1 2 cbr 210 ------- 2 1.0 3.1 52 94
+ 0.30468 2 3 cbr 210 ------- 2 1.0 3.1 52 94
r 0.30518 2 3 tcp 1040 ------- 1 0.0 3.0 21 80
+ 0.30518 3 2 ack 40 ------- 1 3.0 0.0 11 101
- 0.30518 3 2 ack 40 ------- 1 3.0 0.0 11 101
r 0.30602 2 3 cbr 210 ------- 2 1.0 3.1 48 86
+ 0.30625 1 2 cbr 210 ------- 2 1.0 3.1 55 102
- 0.30625 1 2 cbr 210 ------- 2 1.0 3.1 55 102
r 0.3065 2 0 ack 40 ------- 1 3.0 0.0 11 92
- 0.30718 2 3 cbr 210 ------- 2 1.0 3.1 50 91
- 0.30802 2 3 cbr 210 ------- 2 1.0 3.1 51 93
r 0.30834 3 2 ack 40 ------- 1 3.0 0.0 11 98
+ 0.30834 2 0 ack 40 ------- 1 3.0 0.0 11 98
- 0.30834 2 0 ack 40 ------- 1 3.0 0.0 11 98
r 0.30843 1 2 cbr 210 ------- 2 1.0 3.1 53 97
+ 0.30843 2 3 cbr 210 ------- 2 1.0 3.1 53 97
r 0.30866 0 2 tcp 1040 ------- 1 0.0 3.0 26 96
+ 0.30866 2 3 tcp 1040 ------- 1 0.0 3.0 26 96
- 0.30886 2 3 cbr 210 ------- 2 1.0 3.1 52 94
- 0.3097 2 3 cbr 210 ------- 2 1.0 3.1 53 97
+ 0.31 1 2 cbr 210 ------- 2 1.0 3.1 56 103
- 0.31 1 2 cbr 210 ------- 2 1.0 3.1 56 103
r 0.31018 2 3 tcp 1040 ------- 1 0.0 3.0 23 83
+ 0.31018 3 2 ack 40 ------- 1 3.0 0.0 11 104
- 0.31018 3 2 ack 40 ------- 1 3.0 0.0 11 104
- 0.31054 2 3 tcp 1040 ------- 1 0.0 3.0 26 96
r 0.31102 2 3 cbr 210 ------- 2 1.0 3.1 49 89
r 0.3115 2 0 ack 40 ------- 1 3.0 0.0 11 95
r 0.31218 1 2 cbr 210 ------- 2 1.0 3.1 54 100
+ 0.31218 2 3 cbr 210 ------- 2 1.0 3.1 54 100
r 0.31334 3 2 ack 40 ------- 1 3.0 0.0 11 101
+ 0.31334 2 0 ack 40 ------- 1 3.0 0.0 11 101
- 0.31334 2 0 ack 40 ------- 1 3.0 0.0 11 101
r 0.31366 0 2 tcp 1040 ---A--- 1 0.0 3.0 12 99
+ 0.31366 2 3 tcp 1040 ---A--- 1 0.0 3.0 12 99
+ 0.31375 1 2 cbr 210 ------- 2 1.0 3.1 57 105
- 0.31375 1 2 cbr 210 ------- 2 1.0 3.1 57 105
- 0.3147 2 3 cbr 210 ------- 2 1.0 3.1 54 100
r 0.31518 2 3 tcp 1040 ------- 1 0.0 3.0 25 88
+ 0.31518 3 2 ack 40 ------- 1 3.0 0.0 11 106
- 0.31518 3 2 ack 40 ------- 1 3.0 0.0 11 106
- 0.31554 2 3 tcp 1040 ---A--- 1 0.0 3.0 12 99
r 0.31593 1 2 cbr 210 ------- 2 1.0 3.1 55 102
+ 0.31593 2 3 cbr 210 ------- 2 1.0 3.1 55 102
r 0.31602 2 3 cbr 210 ------- 2 1.0 3.1 50 91
r 0.3165 2 0 ack 40 ------- 1 3.0 0.0 11 98
r 0.31686 2 3 cbr 210 ------- 2 1.0 3.1 51 93
+ 0.3175 1 2 cbr 210 ------- 2 1.0 3.1 58 107
- 0.3175 1 2 cbr 210 ------- 2 1.0 3.1 58 107
r 0.3177 2 3 cbr 210 ------- 2 1.0 3.1 52 94
r 0.31834 3 2 ack 40 ------- 1 3.0 0.0 11 104
+ 0.31834 2 0 ack 40 ------- 1 3.0 0.0 11 104
- 0.31834 2 0 ack 40 ------- 1 3.0 0.0 11 104
r 0.31854 2 3 cbr 210 ------- 2 1.0 3.1 53 97
r 0.31968 1 2 cbr 210 ------- 2 1.0 3.1 56 103
+ 0.31968 2 3 cbr 210 ------- 2 1.0 3.1 56 103
- 0.3197 2 3 cbr 210 ------- 2 1.0 3.1 55 102
- 0.32054 2 3 cbr 210 ------- 2 1.0 3.1 56 103
+ 0.32125 1 2 cbr 210 ------- 2 1.0 3.1 59 108
- 0.32125 1 2 cbr 210 ------- 2 1.0 3.1 59 108
r 0.3215 2 0 ack 40 ------- 1 3.0 0.0 11 101
r 0.3227 2 3 tcp 1040 ------- 1 0.0 3.0 26 96
+ 0.3227 3 2 ack 40 ------- 1 3.0 0.0 11 109
- 0.3227 3 2 ack 40 ------- 1 3.0 0.0 11 109
r 0.32334 3 2 ack 40 ------- 1 3.0 0.0 11 106
+ 0.32334 2 0 ack 40 ------- 1 3.0 0.0 11 106
- 0.32334 2 0 ack 40 ------- 1 3.0 0.0 11 106
r 0.32343 1 2 cbr 210 ------- 2 1.0 3.1 57 105
+ 0.32343 2 3 cbr 210 ------- 2 1.0 3.1 57 105
- 0.32343 2 3 cbr 210 ------- 2 1.0 3.1 57 105
r 0.32354 2 3 cbr 210 ------- 2 1.0 3.1 54 100
+ 0.325 1 2 cbr 210 ------- 2 1.0 3.1 60 110
- 0.325 1 2 cbr 210 ------- 2 1.0 3.1 60 110
r 0.3265 2 0 ack 40 ------- 1 3.0 0.0 11 104
r 0.32718 1 2 cbr 210 ------- 2 1.0 3.1 58 107
+ 0.32718 2 3 cbr 210 ------- 2 1.0 3.1 58 107
- 0.32718 2 3 cbr 210 ------- 2 1.0 3.1 58 107
r 0.3277 2 3 tcp 1040 ---A--- 1 0.0 3.0 12 99
+ 0.3277 3 2 ack 40 ------- 1 3.0 0.0 13 111
- 0.3277 3 2 ack 40 ------- 1 3.0 0.0 13 111
r 0.32854 2 3 cbr 210 ------- 2 1.0 3.1 55 102
+ 0.32875 1 2 cbr 210 ------- 2 1.0 3.1 61 112
- 0.32875 1 2 cbr 210 ------- 2 1.0 3.1 61 112
r 0.32938 2 3 cbr 210 ------- 2 1.0 3.1 56 103
r 0.33086 3 2 ack 40 ------- 1 3.0 0.0 11 109
+ 0.33086 2 0 ack 40 ------- 1 3.0 0.0 11 109
- 0.33086 2 0 ack 40 ------- 1 3.0 0.0 11 109
r 0.33093 1 2 cbr 210 ------- 2 1.0 3.1 59 108
+ 0.33093 2 3 cbr 210 ------- 2 1.0 3.1 59 108
- 0.33093 2 3 cbr 210 ------- 2 1.0 3.1 59 108
r 0.3315 2 0 ack 40 ------- 1 3.0 0.0 11 106
r 0.33227 2 3 cbr 210 ------- 2 1.0 3.1 57 105
+ 0.3325 1 2 cbr 210 ------- 2 1.0 3.1 62 113
- 0.3325 1 2 cbr 210 ------- 2 1.0 3.1 62 113
r 0.33468 1 2 cbr 210 ------- 2 1.0 3.1 60 110
+ 0.33468 2 3 cbr 210 ------- 2 1.0 3.1 60 110
- 0.33468 2 3 cbr 210 ------- 2 1.0 3.1 60 110
r 0.33586 3 2 ack 40 ------- 1 3.0 0.0 13 111
+ 0.33586 2 0 ack 40 ------- 1 3.0 0.0 13 111
- 0.33586 2 0 ack 40 ------- 1 3.0 0.0 13 111
r 0.33602 2 3 cbr 210 ------- 2 1.0 3.1 58 107
+ 0.33625 1 2 cbr 210 ------- 2 1.0 3.1 63 114
- 0.33625 1 2 cbr 210 ------- 2 1.0 3.1 63 114
r 0.33843 1 2 cbr 210 ------- 2 1.0 3.1 61 112
+ 0.33843 2 3 cbr 210 ------- 2 1.0 3.1 61 112
- 0.33843 2 3 cbr 210 ------- 2 1.0 3.1 61 112
r 0.33902 2 0 ack 40 ------- 1 3.0 0.0 11 109
r 0.33977 2 3 cbr 210 ------- 2 1.0 3.1 59 108