V -t * -v 1.0a5 -a 0
A -t * -n 1 -p 0 -o 0x7fffffff -c 30 -a 1
A -t * -h 1 -m 1073741823 -s 0
c -t * -i 1 -n Red
n -t * -a 0 -s 0 -S UP -v circle -c red -i red
n -t * -a 1 -s 1 -S UP -v circle -c blue -i blue
n -t * -a 2 -s 2 -S UP -v circle -c black -i black
l -t * -s 0 -d 1 -S UP -r 2000000 -D 0.0040000000000000001 -c black
l -t * -s 1 -d 2 -S UP -r 2000000 -D 0.0040000000000000001 -c black
+ -t 0.1 -s 0 -d 1 -p tcp -e 40 -c 0 -i 0 -a 0 -x {0.0 2.0 0 ------- null}
- -t 0.1 -s 0 -d 1 -p tcp -e 40 -c 0 -i 0 -a 0 -x {0.0 2.0 0 ------- null}
h -t 0.1 -s 0 -d 1 -p tcp -e 40 -c 0 -i 0 -a 0 -x {0.0 2.0 -1 ------- null}
r -t 0.10416 -s 0 -d 1 -p tcp -e 40 -c 0 -i 0 -a 0 -x {0.0 2.0 0 ------- null}
+ -t 0.10416 -s 1 -d 2 -p tcp -e 40 -c 0 -i 0 -a 0 -x {0.0 2.0 0 ------- null}
- -t 0.10416 -s 1 -d 2 -p tcp -e 40 -c 0 -i 0 -a 0 -x {0.0 2.0 0 ------- null}
h -t 0.10416 -s 1 -d 2 -p tcp -e 40 -c 0 -i 0 -a 0 -x {0.0 2.0 -1 ------- null}
r -t 0.10832 -s 1 -d 2 -p tcp -e 40 -c 0 -i 0 -a 0 -x {0.0 2.0 0 ------- null}
+ -t 0.10832 -s 2 -d 1 -p ack -e 40 -c 0 -i 1 -a 0 -x {2.0 0.0 0 ------- null}
- -t 0.10832 -s 2 -d 1 -p ack -e 40 -c 0 -i 1 -a 0 -x {2.0 0.0 0 ------- null}
h -t 0.10832 -s 2 -d 1 -p ack -e 40 -c 0 -i 1 -a 0 -x {2.0 0.0 -1 ------- null}
r -t 0.11248 -s 2 -d 1 -p ack -e 40 -c 0 -i 1 -a 0 -x {2.0 0.0 0 ------- null}
+ -t 0.11248 -s 1 -d 0 -p ack -e 40 -c 0 -i 1 -a 0 -x {2.0 0.0 0 ------- null}
- -t 0.11248 -s 1 -d 0 -p ack -e 40 -c 0 -i 1 -a 0 -x {2.0 0.0 0 ------- null}
h -t 0.11248 -s 1 -d 0 -p ack -e 40 -c 0 -i 1 -a 0 -x {2.0 0.0 -1 ------- null}
r -t 0.11664 -s 1 -d 0 -p ack -e 40 -c 0 -i 1 -a 0 -x {2.0 0.0 0 ------- null}
+ -t 0.11664 -s 0 -d 1 -p tcp -e 1040 -c 0 -i 2 -a 0 -x {0.0 2.0 1 ------- null}
- -t 0.11664 -s 0 -d 1 -p tcp -e 1040 -c 0 -i 2 -a 0 -x {0.0 2.0 1 ------- null}
h -t 0.11664 -s 0 -d 1 -p tcp -e 1040 -c 0 -i 2 -a 0 -x {0.0 2.0 -1 ------- null}
+ -t 0.11664 -s 0 -d 1 -p tcp -e 1040 -c 0 -i 3 -a 0 -x {0.0 2.0 2 ------- null}
- -t 0.1208 -s 0 -d 1 -p tcp -e 1040 -c 0 -i 3 -a 0 -x {0.0 2.0 2 ------- null}
h -t 0.1208 -s 0 -d 1 -p tcp -e 1040 -c 0 -i 3 -a 0 -x {0.0 2.0 -1 ------- null}
r -t 0.1248 -s 0 -d 1 -p tcp -e 1040 -c 0 -i 2 -a 0 -x {0.0 2.0 1 ------- null}
+ -t 0.1248 -s 1 -d 2 -p tcp -e 1040 -c 0 -i 2 -a 0 -x {0.0 2.0 1 ------- null}
- -t 0.1248 -s 1 -d 2 -p tcp -e 1040 -c 0 -i 2 -a 0 -x {0.0 2.0 1 ------- null}
h -t 0.1248 -s 1 -d 2 -p tcp -e 1040 -c 0 -i 2 -a 0 -x {0.0 2.0 -1 ------- null}
r -t 0.12896 -s 0 -d 1 -p tcp -e 1040 -c 0 -i 3 -a 0 -x {0.0 2.0 2 ------- null}
+ -t 0.12896 -s 1 -d 2 -p tcp -e 1040 -c 0 -i 3 -a 0 -x {0.0 2.0 2 ------- null}
- -t 0.12896 -s 1 -d 2 -p tcp -e 1040 -c 0 -i 3 -a 0 -x {0.0 2.0 2 ------- null}
h -t 0.12896 -s 1 -d 2 -p tcp -e 1040 -c 0 -i 3 -a 0 -x {0.0 2.0 -1 ------- null}
r -t 0.13296 -s 1 -d 2 -p tcp -e 1040 -c 0 -i 2 -a 0 -x {0.0 2.0 1 ------- null}
+ -t 0.13296 -s 2 -d 1 -p ack -e 40 -c 0 -i 4 -a 0 -x {2.0 0.0 1 ------- null}
- -t 0.13296 -s 2 -d 1 -p ack -e 40 -c 0 -i 4 -a 0 -x {2.0 0.0 1 ------- null}
h -t 0.13296 -s 2 -d 1 -p ack -e 40 -c 0 -i 4 -a 0 -x {2.0 0.0 -1 ------- null}
r -t 0.13712 -s 1 -d 2 -p tcp -e 1040 -c 0 -i 3 -a 0 -x {0.0 2.0 2 ------- null}
+ -t 0.13712 -s 2 -d 1 -p ack -e 40 -c 0 -i 5 -a 0 -x {2.0 0.0 2 ------- null}
- -t 0.13712 -s 2 -d 1 -p ack -e 40 -c 0 -i 5 -a 0 -x {2.0 0.0 2 ------- null}
h -t 0.13712 -s 2 -d 1 -p ack -e 40 -c 0 -i 5 -a 0 -x {2.0 0.0 -1 ------- null}
r -t 0.13712 -s 2 -d 1 -p ack -e 40 -c 0 -i 4 -a 0 -x {2.0 0.0 1 ------- null}
+ -t 0.13712 -s 1 -d 0 -p ack -e 40 -c 0 -i 4 -a 0 -x {2.0 0.0 1 ------- null}
- -t 0.13712 -s 1 -d 0 -p ack -e 40 -c 0 -i 4 -a 0 -x {2.0 0.0 1 ------- null}
h -t 0.13712 -s 1 -d 0 -p ack -e 40 -c 0 -i 4 -a 0 -x {2.0 0.0 -1 ------- null}
r -t 0.14128 -s 2 -d 1 -p ack -e 40 -c 0 -i 5 -a 0 -x {2.0 0.0 2 ------- null}
+ -t 0.14128 -s 1 -d 0 -p ack -e 40 -c 0 -i 5 -a 0 -x {2.0 0.0 2 ------- null}
- -t 0.14128 -s 1 -d 0 -p ack -e 40 -c 0 -i 5 -a 0 -x {2.0 0.0 2 ------- null}
h -t 0.14128 -s 1 -d 0 -p ack -e 40 -c 0 -i 5 -a 0 -x {2.0 0.0 -1 ------- null}
r -t 0.14128 -s 1 -d 0 -p ack -e 40 -c 0 -i 4 -a 0 -x {2.0 0.0 1 ------- null}
+ -t 0.14128 -s 0 -d 1 -p tcp -e 1040 -c 0 -i 6 -a 0 -x {0.0 2.0 3 ------- null}
- -t 0.14128 -s 0 -d 1 -p tcp -e 1040 -c 0 -i 6 -a 0 -x {0.0 2.0 3 ------- null}
h -t 0.14128 -s 0 -d 1 -p tcp -e 1040 -c 0 -i 6 -a 0 -x {0.0 2.0 -1 ------- null}
+ -t 0.14128 -s 0 -d 1 -p tcp -e 1040 -c 0 -i 7 -a 0 -x {0.0 2.0 4 ------- null}
r -t 0.14544 -s 1 -d 0 -p ack -e 40 -c 0 -i 5 -a 0 -x {2.0 0.0 2 ------- null}
+ -t 0.14544 -s 0 -d 1 -p tcp -e 1040 -c 0 -i 8 -a 0 -x {0.0 2.0 5 ------- null}
+ -t 0.14544 -s 0 -d 1 -p tcp -e 1040 -c 0 -i 9 -a 0 -x {0.0 2.0 6 ------- null}
- -t 0.14544 -s 0 -d 1 -p tcp -e 1040 -c 0 -i 7 -a 0 -x {0.0 2.0 4 ------- null}
h -t 0.14544 -s 0 -d 1 -p tcp -e 1040 -c 0 -i 7 -a 0 -x {0.0 2.0 -1 ------- null}
r -t 0.14944 -s 0 -d 1 -p tcp -e 1040 -c 0 -i 6 -a 0 -x {0.0 2.0 3 ------- null}
+ -t 0.14944 -s 1 -d 2 -p tcp -e 1040 -c 0 -i 6 -a 0 -x {0.0 2.0 3 ------- null}
- -t 0.14944 -s 1 -d 2 -p tcp -e 1040 -c 0 -i 6 -a 0 -x {0.0 2.0 3 ------- null}
h -t 0.14944 -s 1 -d 2 -p tcp -e 1040 -c 0 -i 6 -a 0 -x {0.0 2.0 -1 ------- null}
- -t 0.1496 -s 0 -d 1 -p tcp -e 1040 -c 0 -i 8 -a 0 -x {0.0 2.0 5 ------- null}
h -t 0.1496 -s 0 -d 1 -p tcp -e 1040 -c 0 -i 8 -a 0 -x {0.0 2.0 -1 ------- null}
r -t 0.1536 -s 0 -d 1 -p tcp -e 1040 -c 0 -i 7 -a 0 -x {0.0 2.0 4 ------- null}
+ -t 0.1536 -s 1 -d 2 -p tcp -e 1040 -c 0 -i 7 -a 0 -x {0.0 2.0 4 ------- null}
- -t 0.1536 -s 1 -d 2 -p tcp -e 1040 -c 0 -i 7 -a 0 -x {0.0 2.0 4 ------- null}
h -t 0.1536 -s 1 -d 2 -p tcp -e 1040 -c 0 -i 7 -a 0 -x {0.0 2.0 -1 ------- null}
- -t 0.15376 -s 0 -d 1 -p tcp -e 1040 -c 0 -i 9 -a 0 -x {0.0 2.0 6 ------- null}
h -t 0.15376 -s 0 -d 1 -p tcp -e 1040 -c 0 -i 9 -a 0 -x {0.0 2.0 -1 ------- null}
r -t 0.1576 -s 1 -d 2 -p tcp -e 1040 -c 0 -i 6 -a 0 -x {0.0 2.0 3 ------- null}
+ -t 0.1576 -s 2 -d 1 -p ack -e 40 -c 0 -i 10 -a 0 -x {2.0 0.0 3 ------- null}
- -t 0.1576 -s 2 -d 1 -p ack -e 40 -c 0 -i 10 -a 0 -x {2.0 0.0 3 ------- null}
h -t 0.1576 -s 2 -d 1 -p ack -e 40 -c 0 -i 10 -a 0 -x {2.0 0.0 -1 ------- null}
r -t 0.15776 -s 0 -d 1 -p tcp -e 1040 -c 0 -i 8 -a 0 -x {0.0 2.0 5 ------- null}
+ -t 0.15776 -s 1 -d 2 -p tcp -e 1040 -c 0 -i 8 -a 0 -x {0.0 2.0 5 ------- null}
- -t 0.15776 -s 1 -d 2 -p tcp -e 1040 -c 0 -i 8 -a 0 -x {0.0 2.0 5 ------- null}
h -t 0.15776 -s 1 -d 2 -p tcp -e 1040 -c 0 -i 8 -a 0 -x {0.0 2.0 -1 ------- null}
r -t 0.16176 -s 1 -d 2 -p tcp -e 1040 -c 0 -i 7 -a 0 -x {0.0 2.0 4 ------- null}
+ -t 0.16176 -s 2 -d 1 -p ack -e 40 -c 0 -i 11 -a 0 -x {2.0 0.0 4 ------- null}
- -t 0.16176 -s 2 -d 1 -p ack -e 40 -c 0 -i 11 -a 0 -x {2.0 0.0 4 ------- null}
h -t 0.16176 -s 2 -d 1 -p ack -e 40 -c 0 -i 11 -a 0 -x {2.0 0.0 -1 ------- null}
r -t 0.16176 -s 2 -d 1 -p ack -e 40 -c 0 -i 10 -a 0 -x {2.0 0.0 3 ------- null}
+ -t 0.16176 -s 1 -d 0 -p ack -e 40 -c 0 -i 10 -a 0 -x {2.0 0.0 3 ------- null}
- -t 0.16176 -s 1 -d 0 -p ack -e 40 -c 0 -i 10 -a 0 -x {2.0 0.0 3 ------- null}
h -t 0.16176 -s 1 -d 0 -p ack -e 40 -c 0 -i 10 -a 0 -x {2.0 0.0 -1 ------- null}
r -t 0.16192 -s 0 -d 1 -p tcp -e 1040 -c 0 -i 9 -a 0 -x {0.0 2.0 6 ------- null}
+ -t 0.16192 -s 1 -d 2 -p tcp -e 1040 -c 0 -i 9 -a 0 -x {0.0 2.0 6 ------- null}
- -t 0.16192 -s 1 -d 2 -p tcp -e 1040 -c 0 -i 9 -a 0 -x {0.0 2.0 6 ------- null}
h -t 0.16192 -s 1 -d 2 -p tcp -e 1040 -c 0 -i 9 -a 0 -x {0.0 2.0 -1 ------- null}
r -t 0.16592 -s 1 -d 2 -p tcp -e 1040 -c 0 -i 8 -a 0 -x {0.0 2.0 5 ------- null}
+ -t 0.16592 -s 2 -d 1 -p ack -e 40 -c 0 -i 12 -a 0 -x {2.0 0.0 5 ------- null}
- -t 0.16592 -s 2 -d 1 -p ack -e 40 -c 0 -i 12 -a 0 -x {2.0 0.0 5 ------- null}
h -t 0.16592 -s 2 -d 1 -p ack -e 40 -c 0 -i 12 -a 0 -x {2.0 0.0 -1 ------- null}
r -t 0.16592 -s 2 -d 1 -p ack -e 40 -c 0 -i 11 -a 0 -x {2.0 0.0 4 ------- null}
+ -t 0.16592 -s 1 -d 0 -p ack -e 40 -c 0 -i 11 -a 0 -x {2.0 0.0 4 ------- null}
- -t 0.16592 -s 1 -d 0 -p ack -e 40 -c 0 -i 11 -a 0 -x {2.0 0.0 4 ------- null}
h -t 0.16592 -s 1 -d 0 -p ack -e 40 -c 0 -i 11 -a 0 -x {2.0 0.0 -1 ------- null}
r -t 0.16592 -s 1 -d 0 -p ack -e 40 -c 0 -i 10 -a 0 -x {2.0 0.0 3 ------- null}
+ -t 0.16592 -s 0 -d 1 -p tcp -e 1040 -c 0 -i 13 -a 0 -x {0.0 2.0 7 ------- null}
- -t 0.16592 -s 0 -d 1 -p tcp -e 1040 -c 0 -i 13 -a 0 -x {0.0 2.0 7 ------- null}
h -t 0.16592 -s 0 -d 1 -p tcp -e 1040 -c 0 -i 13 -a 0 -x {0.0 2.0 -1 ------- null}
+ -t 0.16592 -s 0 -d 1 -p tcp -e 1040 -c 0 -i 14 -a 0 -x {0.0 2.0 8 ------- null}
r -t 0.17008 -s 1 -d 2 -p tcp -e 1040 -c 0 -i 9 -a 0 -x {0.0 2.0 6 ------- null}
+ -t 0.17008 -s 2 -d 1 -p ack -e 40 -c 0 -i 15 -a 0 -x {2.0 0.0 6 ------- null}
- -t 0.17008 -s 2 -d 1 -p ack -e 40 -c 0 -i 15 -a 0 -x {2.0 0.0 6 ------- null}
h -t 0.17008 -s 2 -d 1 -p ack -e 40 -c 0 -i 15 -a 0 -x {2.0 0.0 -1 ------- null}
r -t 0.17008 -s 2 -d 1 -p ack -e 40 -c 0 -i 12 -a 0 -x {2.0 0.0 5 ------- null}
+ -t 0.17008 -s 1 -d 0 -p ack -e 40 -c 0 -i 12 -a 0 -x {2.0 0.0 5 ------- null}
- -t 0.17008 -s 1 -d 0 -p ack -e 40 -c 0 -i 12 -a 0 -x {2.0 0.0 5 ------- null}
h -t 0.17008 -s 1 -d 0 -p ack -e 40 -c 0 -i 12 -a 0 -x {2.0 0.0 -1 ------- null}
r -t 0.17008 -s 1 -d 0 -p ack -e 40 -c 0 -i 11 -a 0 -x {2.0 0.0 4 ------- null}
+ -t 0.17008 -s 0 -d 1 -p tcp -e 1040 -c 0 -i 16 -a 0 -x {0.0 2.0 9 ------- null}
+ -t 0.17008 -s 0 -d 1 -p tcp -e 1040 -c 0 -i 17 -a 0 -x {0.0 2.0 10 ------- null}
- -t 0.17008 -s 0 -d 1 -p tcp -e 1040 -c 0 -i 14 -a 0 -x {0.0 2.0 8 ------- null}
h -t 0.17008 -s 0 -d 1 -p tcp -e 1040 -c 0 -i 14 -a 0 -x {0.0 2.0 -1 ------- null}
r -t 0.17408 -s 0 -d 1 -p tcp -e 1040 -c 0 -i 13 -a 0 -x {0.0 2.0 7 ------- null}
+ -t 0.17408 -s 1 -d 2 -p tcp -e 1040 -c 0 -i 13 -a 0 -x {0.0 2.0 7 ------- null}
- -t 0.17408 -s 1 -d 2 -p tcp -e 1040 -c 0 -i 13 -a 0 -x {0.0 2.0 7 ------- null}
h -t 0.17408 -s 1 -d 2 -p tcp -e 1040 -c 0 -i 13 -a 0 -x {0.0 2.0 -1 ------- null}
r -t 0.17424 -s 2 -d 1 -p ack -e 40 -c 0 -i 15 -a 0 -x {2.0 0.0 6 ------- null}
+ -t 0.17424 -s 1 -d 0 -p ack -e 40 -c 0 -i 15 -a 0 -x {2.0 0.0 6 ------- null}
- -t 0.17424 -s 1 -d 0 -p ack -e 40 -c 0 -i 15 -a 0 -x {2.0 0.0 6 ------- null}
h -t 0.17424 -s 1 -d 0 -p ack -e 40 -c 0 -i 15 -a 0 -x {2.0 0.0 -1 ------- null}
r -t 0.17424 -s 1 -d 0 -p ack -e 40 -c 0 -i 12 -a 0 -x {2.0 0.0 5 ------- null}
+ -t 0.17424 -s 0 -d 1 -p tcp -e 1040 -c 0 -i 18 -a 0 -x {0.0 2.0 11 ------- null}
+ -t 0.17424 -s 0 -d 1 -p tcp -e 1040 -c 0 -i 19 -a 0 -x {0.0 2.0 12 ------- null}
- -t 0.17424 -s 0 -d 1 -p tcp -e 1040 -c 0 -i 16 -a 0 -x {0.0 2.0 9 ------- null}
h -t 0.17424 -s 0 -d 1 -p tcp -e 1040 -c 0 -i 16 -a 0 -x {0.0 2.0 -1 ------- null}
r -t 0.17824 -s 0 -d 1 -p tcp -e 1040 -c 0 -i 14 -a 0 -x {0.0 2.0 8 ------- null}
+ -t 0.17824 -s 1 -d 2 -p tcp -e 1040 -c 0 -i 14 -a 0 -x {0.0 2.0 8 ------- null}
- -t 0.17824 -s 1 -d 2 -p tcp -e 1040 -c 0 -i 14 -a 0 -x {0.0 2.0 8 ------- null}
h -t 0.17824 -s 1 -d 2 -p tcp -e 1040 -c 0 -i 14 -a 0 -x {0.0 2.0 -1 ------- null}
r -t 0.1784 -s 1 -d 0 -p ack -e 40 -c 0 -i 15 -a 0 -x {2.0 0.0 6 ------- null}
+ -t 0.1784 -s 0 -d 1 -p tcp -e 1040 -c 0 -i 20 -a 0 -x {0.0 2.0 13 ------- null}
+ -t 0.1784 -s 0 -d 1 -p tcp -e 1040 -c 0 -i 21 -a 0 -x {0.0 2.0 14 ------- null}
- -t 0.1784 -s 0 -d 1 -p tcp -e 1040 -c 0 -i 17 -a 0 -x {0.0 2.0 10 ------- null}
h -t 0.1784 -s 0 -d 1 -p tcp -e 1040 -c 0 -i 17 -a 0 -x {0.0 2.0 -1 ------- null}
r -t 0.18224 -s 1 -d 2 -p tcp -e 1040 -c 0 -i 13 -a 0 -x {0.0 2.0 7 ------- null}
+ -t 0.18224 -s 2 -d 1 -p ack -e 40 -c 0 -i 22 -a 0 -x {2.0 0.0 7 ------- null}
- -t 0.18224 -s 2 -d 1 -p ack -e 40 -c 0 -i 22 -a 0 -x {2.0 0.0 7 ------- null}
h -t 0.18224 -s 2 -d 1 -p ack -e 40 -c 0 -i 22 -a 0 -x {2.0 0.0 -1 ------- null}
r -t 0.1824 -s 0 -d 1 -p tcp -e 1040 -c 0 -i 16 -a 0 -x {0.0 2.0 9 ------- null}
+ -t 0.1824 -s 1 -d 2 -p tcp -e 1040 -c 0 -i 16 -a 0 -x {0.0 2.0 9 ------- null}
- -t 0.1824 -s 1 -d 2 -p tcp -e 1040 -c 0 -i 16 -a 0 -x {0.0 2.0 9 ------- null}
h -t 0.1824 -s 1 -d 2 -p tcp -e 1040 -c 0 -i 16 -a 0 -x {0.0 2.0 -1 ------- null}
- -t 0.18256 -s 0 -d 1 -p tcp -e 1040 -c 0 -i 18 -a 0 -x {0.0 2.0 11 ------- null}
h -t 0.18256 -s 0 -d 1 -p tcp -e 1040 -c 0 -i 18 -a 0 -x {0.0 2.0 -1 ------- null}
r -t 0.1864 -s 1 -d 2 -p tcp -e 1040 -c 0 -i 14 -a 0 -x {0.0 2.0 8 ------- null}
+ -t 0.1864 -s 2 -d 1 -p ack -e 40 -c 0 -i 23 -a 0 -x {2.0 0.0 8 ------- null}
- -t 0.1864 -s 2 -d 1 -p ack -e 40 -c 0 -i 23 -a 0 -x {2.0 0.0 8 ------- null}
h -t 0.1864 -s 2 -d 1 -p ack -e 40 -c 0 -i 23 -a 0 -x {2.0 0.0 -1 ------- null}
r -t 0.1864 -s 2 -d 1 -p ack -e 40 -c 0 -i 22 -a 0 -x {2.0 0.0 7 ------- null}
+ -t 0.1864 -s 1 -d 0 -p ack -e 40 -c 0 -i 22 -a 0 -x {2.0 0.0 7 ------- null}
- -t 0.1864 -s 1 -d 0 -p ack -e 40 -c 0 -i 22 -a 0 -x {2.0 0.0 7 ------- null}
h -t 0.1864 -s 1 -d 0 -p ack -e 40 -c 0 -i 22 -a 0 -x {2.0 0.0 -1 ------- null}
r -t 0.18656 -s 0 -d 1 -p tcp -e 1040 -c 0 -i 17 -a 0 -x {0.0 2.0 10 ------- null}
+ -t 0.18656 -s 1 -d 2 -p tcp -e 1040 -c 0 -i 17 -a 0 -x {0.0 2.0 10 ------- null}
- -t 0.18656 -s 1 -d 2 -p tcp -e 1040 -c 0 -i 17 -a 0 -x {0.0 2.0 10 ------- null}
h -t 0.18656 -s 1 -d 2 -p tcp -e 1040 -c 0 -i 17 -a 0 -x {0.0 2.0 -1 ------- null}
- -t 0.18672 -s 0 -d 1 -p tcp -e 1040 -c 0 -i 19 -a 0 -x {0.0 2.0 12 ------- null}
h -t 0.18672 -s 0 -d 1 -p tcp -e 1040 -c 0 -i 19 -a 0 -x {0.0 2.0 -1 ------- null}
r -t 0.19056 -s 1 -d 2 -p tcp -e 1040 -c 0 -i 16 -a 0 -x {0.0 2.0 9 ------- null}
+ -t 0.19056 -s 2 -d 1 -p ack -e 40 -c 0 -i 24 -a 0 -x {2.0 0.0 9 ------- null}
- -t 0.19056 -s 2 -d 1 -p ack -e 40 -c 0 -i 24 -a 0 -x {2.0 0.0 9 ------- null}
h -t 0.19056 -s 2 -d 1 -p ack -e 40 -c 0 -i 24 -a 0 -x {2.0 0.0 -1 ------- null}
r -t 0.19056 -s 2 -d 1 -p ack -e 40 -c 0 -i 23 -a 0 -x {2.0 0.0 8 ------- null}
+ -t 0.19056 -s 1 -d 0 -p ack -e 40 -c 0 -i 23 -a 0 -x {2.0 0.0 8 ------- null}
- -t 0.19056 -s 1 -d 0 -p ack -e 40 -c 0 -i 23 -a 0 -x {2.0 0.0 8 ------- null}
h -t 0.19056 -s 1 -d 0 -p ack -e 40 -c 0 -i 23 -a 0 -x {2.0 0.0 -1 ------- null}
r -t 0.19056 -s 1 -d 0 -p ack -e 40 -c 0 -i 22 -a 0 -x {2.0 0.0 7 ------- null}
+ -t 0.19056 -s 0 -d 1 -p tcp -e 1040 -c 0 -i 25 -a 0 -x {0.0 2.0 15 ------- null}
+ -t 0.19056 -s 0 -d 1 -p tcp -e 1040 -c 0 -i 26 -a 0 -x {0.0 2.0 16 ------- null}
r -t 0.19072 -s 0 -d 1 -p tcp -e 1040 -c 0 -i 18 -a 0 -x {0.0 2.0 11 ------- null}
+ -t 0.19072 -s 1 -d 2 -p tcp -e 1040 -c 0 -i 18 -a 0 -x {0.0 2.0 11 ------- null}
- -t 0.19072 -s 1 -d 2 -p tcp -e 1040 -c 0 -i 18 -a 0 -x {0.0 2.0 11 ------- null}
h -t 0.19072 -s 1 -d 2 -p tcp -e 1040 -c 0 -i 18 -a 0 -x {0.0 2.0 -1 ------- null}
- -t 0.19088 -s 0 -d 1 -p tcp -e 1040 -c 0 -i 20 -a 0 -x {0.0 2.0 13 ------- null}
h -t 0.19088 -s 0 -d 1 -p tcp -e 1040 -c 0 -i 20 -a 0 -x {0.0 2.0 -1 ------- null}
r -t 0.19472 -s 1 -d 2 -p tcp -e 1040 -c 0 -i 17 -a 0 -x {0.0 2.0 10 ------- null}
+ -t 0.19472 -s 2 -d 1 -p ack -e 40 -c 0 -i 27 -a 0 -x {2.0 0.0 10 ------- null}
- -t 0.19472 -s 2 -d 1 -p ack -e 40 -c 0 -i 27 -a 0 -x {2.0 0.0 10 ------- null}
h -t 0.19472 -s 2 -d 1 -p ack -e 40 -c 0 -i 27 -a 0 -x {2.0 0.0 -1 ------- null}
r -t 0.19472 -s 2 -d 1 -p ack -e 40 -c 0 -i 24 -a 0 -x {2.0 0.0 9 ------- null}
+ -t 0.19472 -s 1 -d 0 -p ack -e 40 -c 0 -i 24 -a 0 -x {2.0 0.0 9 ------- null}
- -t 0.19472 -s 1 -d 0 -p ack -e 40 -c 0 -i 24 -a 0 -x {2.0 0.0 9 ------- null}
h -t 0.19472 -s 1 -d 0 -p ack -e 40 -c 0 -i 24 -a 0 -x {2.0 0.0 -1 ------- null}
r -t 0.19472 -s 1 -d 0 -p ack -e 40 -c 0 -i 23 -a 0 -x {2.0 0.0 8 ------- null}
+ -t 0.19472 -s 0 -d 1 -p tcp -e 1040 -c 0 -i 28 -a 0 -x {0.0 2.0 17 ------- null}
+ -t 0.19472 -s 0 -d 1 -p tcp -e 1040 -c 0 -i 29 -a 0 -x {0.0 2.0 18 ------- null}
r -t 0.19488 -s 0 -d 1 -p tcp -e 1040 -c 0 -i 19 -a 0 -x {0.0 2.0 12 ------- null}
+ -t 0.19488 -s 1 -d 2 -p tcp -e 1040 -c 0 -i 19 -a 0 -x {0.0 2.0 12 ------- null}
- -t 0.19488 -s 1 -d 2 -p tcp -e 1040 -c 0 -i 19 -a 0 -x {0.0 2.0 12 ------- null}
h -t 0.19488 -s 1 -d 2 -p tcp -e 1040 -c 0 -i 19 -a 0 -x {0.0 2.0 -1 ------- null}
- -t 0.19504 -s 0 -d 1 -p tcp -e 1040 -c 0 -i 21 -a 0 -x {0.0 2.0 14 ------- null}
h -t 0.19504 -s 0 -d 1 -p tcp -e 1040 -c 0 -i 21 -a 0 -x {0.0 2.0 -1 ------- null}
r -t 0.19888 -s 1 -d 2 -p tcp -e 1040 -c 0 -i 18 -a 0 -x {0.0 2.0 11 ------- null}
+ -t 0.19888 -s 2 -d 1 -p ack -e 40 -c 0 -i 30 -a 0 -x {2.0 0.0 11 ------- null}
- -t 0.19888 -s 2 -d 1 -p ack -e 40 -c 0 -i 30 -a 0 -x {2.0 0.0 11 ------- null}
h -t 0.19888 -s 2 -d 1 -p ack -e 40 -c 0 -i 30 -a 0 -x {2.0 0.0 -1 ------- null}
r -t 0.19888 -s 2 -d 1 -p ack -e 40 -c 0 -i 27 -a 0 -x {2.0 0.0 10 ------- null}
+ -t 0.19888 -s 1 -d 0 -p ack -e 40 -c 0 -i 27 -a 0 -x {2.0 0.0 10 ------- null}
- -t 0.19888 -s 1 -d 0 -p ack -e 40 -c 0 -i 27 -a 0 -x {2.0 0.0 10 ------- null}
h -t 0.19888 -s 1 -d 0 -p ack -e 40 -c 0 -i 27 -a 0 -x {2.0 0.0 -1 ------- null}
r -t 0.19888 -s 1 -d 0 -p ack -e 40 -c 0 -i 24 -a 0 -x {2.0 0.0 9 ------- null}
+ -t 0.19888 -s 0 -d 1 -p tcp -e 1040 -c 0 -i 31 -a 0 -x {0.0 2.0 19 ------- null}
+ -t 0.19888 -s 0 -d 1 -p tcp -e 1040 -c 0 -i 32 -a 0 -x {0.0 2.0 20 ------- null}
r -t 0.19904 -s 0 -d 1 -p tcp -e 1040 -c 0 -i 20 -a 0 -x {0.0 2.0 13 ------- null}
+ -t 0.19904 -s 1 -d 2 -p tcp -e 1040 -c 0 -i 20 -a 0 -x {0.0 2.0 13 ------- null}
- -t 0.19904 -s 1 -d 2 -p tcp -e 1040 -c 0 -i 20 -a 0 -x {0.0 2.0 13 ------- null}
h -t 0.19904 -s 1 -d 2 -p tcp -e 1040 -c 0 -i 20 -a 0 -x {0.0 2.0 -1 ------- null}
- -t 0.1992 -s 0 -d 1 -p tcp -e 1040 -c 0 -i 25 -a 0 -x {0.0 2.0 15 ------- null}
h -t 0.1992 -s 0 -d 1 -p tcp -e 1040 -c 0 -i 25 -a 0 -x {0.0 2.0 -1 ------- null}
r -t 0.20304 -s 1 -d 2 -p tcp -e 1040 -c 0 -i 19 -a 0 -x {0.0 2.0 12 ------- null}
+ -t 0.20304 -s 2 -d 1 -p ack -e 40 -c 0 -i 33 -a 0 -x {2.0 0.0 12 ------- null}
- -t 0.20304 -s 2 -d 1 -p ack -e 40 -c 0 -i 33 -a 0 -x {2.0 0.0 12 ------- null}
h -t 0.20304 -s 2 -d 1 -p ack -e 40 -c 0 -i 33 -a 0 -x {2.0 0.0 -1 ------- null}
r -t 0.20304 -s 2 -d 1 -p ack -e 40 -c 0 -i 30 -a 0 -x {2.0 0.0 11 ------- null}
+ -t 0.20304 -s 1 -d 0 -p ack -e 40 -c 0 -i 30 -a 0 -x {2.0 0.0 11 ------- null}
- -t 0.20304 -s 1 -d 0 -p ack -e 40 -c 0 -i 30 -a 0 -x {2.0 0.0 11 ------- null}
h -t 0.20304 -s 1 -d 0 -p ack -e 40 -c 0 -i 30 -a 0 -x {2.0 0.0 -1 ------- null}
r -t 0.20304 -s 1 -d 0 -p ack -e 40 -c 0 -i 27 -a 0 -x {2.0 0.0 10 ------- null}
+ -t 0.20304 -s 0 -d 1 -p tcp -e 1040 -c 0 -i 34 -a 0 -x {0.0 2.0 21 ------- null}
+ -t 0.20304 -s 0 -d 1 -p tcp -e 1040 -c 0 -i 35 -a 0 -x {0.0 2.0 22 ------- null}
r -t 0.2032 -s 0 -d 1 -p tcp -e 1040 -c 0 -i 21 -a 0 -x {0.0 2.0 14 ------- null}
+ -t 0.2032 -s 1 -d 2 -p tcp -e 1040 -c 0 -i 21 -a 0 -x {0.0 2.0 14 ------- null}
- -t 0.2032 -s 1 -d 2 -p tcp -e 1040 -c 0 -i 21 -a 0 -x {0.0 2.0 14 ------- null}
h -t 0.2032 -s 1 -d 2 -p tcp -e 1040 -c 0 -i 21 -a 0 -x {0.0 2.0 -1 ------- null}
- -t 0.20336 -s 0 -d 1 -p tcp -e 1040 -c 0 -i 26 -a 0 -x {0.0 2.0 16 ------- null}
h -t 0.20336 -s 0 -d 1 -p tcp -e 1040 -c 0 -i 26 -a 0 -x {0.0 2.0 -1 ------- null}
r -t 0.2072 -s 1 -d 2 -p tcp -e 1040 -c 0 -i 20 -a 0 -x {0.0 2.0 13 ------- null}
+ -t 0.2072 -s 2 -d 1 -p ack -e 40 -c 0 -i 36 -a 0 -x {2.0 0.0 13 ------- null}
- -t 0.2072 -s 2 -d 1 -p ack -e 40 -c 0 -i 36 -a 0 -x {2.0 0.0 13 ------- null}
h -t 0.2072 -s 2 -d 1 -p ack -e 40 -c 0 -i 36 -a 0 -x {2.0 0.0 -1 ------- null}
r -t 0.2072 -s 2 -d 1 -p ack -e 40 -c 0 -i 33 -a 0 -x {2.0 0.0 12 ------- null}
+ -t 0.2072 -s 1 -d 0 -p ack -e 40 -c 0 -i 33 -a 0 -x {2.0 0.0 12 ------- null}
- -t 0.2072 -s 1 -d 0 -p ack -e 40 -c 0 -i 33 -a 0 -x {2.0 0.0 12 ------- null}
h -t 0.2072 -s 1 -d 0 -p ack -e 40 -c 0 -i 33 -a 0 -x {2.0 0.0 -1 ------- null}
r -t 0.2072 -s 1 -d 0 -p ack -e 40 -c 0 -i 30 -a 0 -x {2.0 0.0 11 ------- null}
+ -t 0.2072 -s 0 -d 1 -p tcp -e 1040 -c 0 -i 37 -a 0 -x {0.0 2.0 23 ------- null}
+ -t 0.2072 -s 0 -d 1 -p tcp -e 1040 -c 0 -i 38 -a 0 -x {0.0 2.0 24 ------- null}
r -t 0.20736 -s 0 -d 1 -p tcp -e 1040 -c 0 -i 25 -a 0 -x {0.0 2.0 15 ------- null}
+ -t 0.20736 -s 1 -d 2 -p tcp -e 1040 -c 0 -i 25 -a 0 -x {0.0 2.0 15 ------- null}
- -t 0.20736 -s 1 -d 2 -p tcp -e 1040 -c 0 -i 25 -a 0 -x {0.0 2.0 15 ------- null}
h -t 0.20736 -s 1 -d 2 -p tcp -e 1040 -c 0 -i 25 -a 0 -x {0.0 2.0 -1 ------- null}
- -t 0.20752 -s 0 -d 1 -p tcp -e 1040 -c 0 -i 28 -a 0 -x {0.0 2.0 17 ------- null}
h -t 0.20752 -s 0 -d 1 -p tcp -e 1040 -c 0 -i 28 -a 0 -x {0.0 2.0 -1 ------- null}
r -t 0.21136 -s 1 -d 2 -p tcp -e 1040 -c 0 -i 21 -a 0 -x {0.0 2.0 14 ------- null}
+ -t 0.21136 -s 2 -d 1 -p ack -e 40 -c 0 -i 39 -a 0 -x {2.0 0.0 14 ------- null}
- -t 0.21136 -s 2 -d 1 -p ack -e 40 -c 0 -i 39 -a 0 -x {2.0 0.0 14 ------- null}
h -t 0.21136 -s 2 -d 1 -p ack -e 40 -c 0 -i 39 -a 0 -x {2.0 0.0 -1 ------- null}
r -t 0.21136 -s 2 -d 1 -p ack -e 40 -c 0 -i 36 -a 0 -x {2.0 0.0 13 ------- null}
+ -t 0.21136 -s 1 -d 0 -p ack -e 40 -c 0 -i 36 -a 0 -x {2.0 0.0 13 ------- null}
- -t 0.21136 -s 1 -d 0 -p ack -e 40 -c 0 -i 36 -a 0 -x {2.0 0.0 13 ------- null}
h -t 0.21136 -s 1 -d 0 -p ack -e 40 -c 0 -i 36 -a 0 -x {2.0 0.0 -1 ------- null}
r -t 0.21136 -s 1 -d 0 -p ack -e 40 -c 0 -i 33 -a 0 -x {2.0 0.0 12 ------- null}
+ -t 0.21136 -s 0 -d 1 -p tcp -e 1040 -c 0 -i 40 -a 0 -x {0.0 2.0 25 ------- null}
+ -t 0.21136 -s 0 -d 1 -p tcp -e 1040 -c 0 -i 41 -a 0 -x {0.0 2.0 26 ------- null}
r -t 0.21152 -s 0 -d 1 -p tcp -e 1040 -c 0 -i 26 -a 0 -x {0.0 2.0 16 ------- null}
+ -t 0.21152 -s 1 -d 2 -p tcp -e 1040 -c 0 -i 26 -a 0 -x {0.0 2.0 16 ------- null}
- -t 0.21152 -s 1 -d 2 -p tcp -e 1040 -c 0 -i 26 -a 0 -x {0.0 2.0 16 ------- null}
h -t 0.21152 -s 1 -d 2 -p tcp -e 1040 -c 0 -i 26 -a 0 -x {0.0 2.0 -1 ------- null}
- -t 0.21168 -s 0 -d 1 -p tcp -e 1040 -c 0 -i 29 -a 0 -x {0.0 2.0 18 ------- null}
h -t 0.21168 -s 0 -d 1 -p tcp -e 1040 -c 0 -i 29 -a 0 -x {0.0 2.0 -1 ------- null}
r -t 0.21552 -s 1 -d 2 -p tcp -e 1040 -c 0 -i 25 -a 0 -x {0.0 2.0 15 ------- null}
+ -t 0.21552 -s 2 -d 1 -p ack -e 40 -c 0 -i 42 -a 0 -x {2.0 0.0 15 ------- null}
- -t 0.21552 -s 2 -d 1 -p ack -e 40 -c 0 -i 42 -a 0 -x {2.0 0.0 15 ------- null}
h -t 0.21552 -s 2 -d 1 -p ack -e 40 -c 0 -i 42 -a 0 -x {2.0 0.0 -1 ------- null}
r -t 0.21552 -s 2 -d 1 -p ack -e 40 -c 0 -i 39 -a 0 -x {2.0 0.0 14 ------- null}
+ -t 0.21552 -s 1 -d 0 -p ack -e 40 -c 0 -i 39 -a 0 -x {2.0 0.0 14 ------- null}
- -t 0.21552 -s 1 -d 0 -p ack -e 40 -c 0 -i 39 -a 0 -x {2.0 0.0 14 ------- null}
h -t 0.21552 -s 1 -d 0 -p ack -e 40 -c 0 -i 39 -a 0 -x {2.0 0.0 -1 ------- null}
r -t 0.21552 -s 1 -d 0 -p ack -e 40 -c 0 -i 36 -a 0 -x {2.0 0.0 13 ------- null}
+ -t 0.21552 -s 0 -d 1 -p tcp -e 1040 -c 0 -i 43 -a 0 -x {0.0 2.0 27 ------- null}
+ -t 0.21552 -s 0 -d 1 -p tcp -e 1040 -c 0 -i 44 -a 0 -x {0.0 2.0 28 ------- null}
r -t 0.21568 -s 0 -d 1 -p tcp -e 1040 -c 0 -i 28 -a 0 -x {0.0 2.0 17 ------- null}
+ -t 0.21568 -s 1 -d 2 -p tcp -e 1040 -c 0 -i 28 -a 0 -x {0.0 2.0 17 ------- null}
- -t 0.21568 -s 1 -d 2 -p tcp -e 1040 -c 0 -i 28 -a 0 -x {0.0 2.0 17 ------- null}
h -t 0.21568 -s 1 -d 2 -p tcp -e 1040 -c 0 -i 28 -a 0 -x {0.0 2.0 -1 ------- null}
- -t 0.21584 -s 0 -d 1 -p tcp -e 1040 -c 0 -i 31 -a 0 -x {0.0 2.0 19 ------- null}
h -t 0.21584 -s 0 -d 1 -p tcp -e 1040 -c 0 -i 31 -a 0 -x {0.0 2.0 -1 ------- null}
r -t 0.21968 -s 1 -d 2 -p tcp -e 1040 -c 0 -i 26 -a 0 -x {0.0 2.0 16 ------- null}
+ -t 0.21968 -s 2 -d 1 -p ack -e 40 -c 0 -i 45 -a 0 -x {2.0 0.0 16 ------- null}
- -t 0.21968 -s 2 -d 1 -p ack -e 40 -c 0 -i 45 -a 0 -x {2.0 0.0 16 ------- null}
h -t 0.21968 -s 2 -d 1 -p ack -e 40 -c 0 -i 45 -a 0 -x {2.0 0.0 -1 ------- null}
r -t 0.21968 -s 2 -d 1 -p ack -e 40 -c 0 -i 42 -a 0 -x {2.0 0.0 15 ------- null}
+ -t 0.21968 -s 1 -d 0 -p ack -e 40 -c 0 -i 42 -a 0 -x {2.0 0.0 15 ------- null}
- -t 0.21968 -s 1 -d 0 -p ack -e 40 -c 0 -i 42 -a 0 -x {2.0 0.0 15 ------- null}
h -t 0.21968 -s 1 -d 0 -p ack -e 40 -c 0 -i 42 -a 0 -x {2.0 0.0 -1 ------- null}
r -t 0.21968 -s 1 -d 0 -p ack -e 40 -c 0 -i 39 -a 0 -x {2.0 0.0 14 ------- null}
+ -t 0.21968 -s 0 -d 1 -p tcp -e 1040 -c 0 -i 46 -a 0 -x {0.0 2.0 29 ------- null}
+ -t 0.21968 -s 0 -d 1 -p tcp -e 1040 -c 0 -i 47 -a 0 -x {0.0 2.0 30 ------- null}
r -t 0.21984 -s 0 -d 1 -p tcp -e 1040 -c 0 -i 29 -a 0 -x {0.0 2.0 18 ------- null}
+ -t 0.21984 -s 1 -d 2 -p tcp -e 1040 -c 0 -i 29 -a 0 -x {0.0 2.0 18 ------- null}
- -t 0.21984 -s 1 -d 2 -p tcp -e 1040 -c 0 -i 29 -a 0 -x {0.0 2.0 18 ------- null}
h -t 0.21984 -s 1 -d 2 -p tcp -e 1040 -c 0 -i 29 -a 0 -x {0.0 2.0 -1 ------- null}
- -t 0.22 -s 0 -d 1 -p tcp -e 1040 -c 0 -i 32 -a 0 -x {0.0 2.0 20 ------- null}
h -t 0.22 -s 0 -d 1 -p tcp -e 1040 -c 0 -i 32 -a 0 -x {0.0 2.0 -1 ------- null}
r -t 0.22384 -s 1 -d 2 -p tcp -e 1040 -c 0 -i 28 -a 0 -x {0.0 2.0 17 ------- null}
+ -t 0.22384 -s 2 -d 1 -p ack -e 40 -c 0 -i 48 -a 0 -x {2.0 0.0 17 ------- null}
- -t 0.22384 -s 2 -d 1 -p ack -e 40 -c 0 -i 48 -a 0 -x {2.0 0.0 17 ------- null}
h -t 0.22384 -s 2 -d 1 -p ack -e 40 -c 0 -i 48 -a 0 -x {2.0 0.0 -1 ------- null}
r -t 0.22384 -s 2 -d 1 -p ack -e 40 -c 0 -i 45 -a 0 -x {2.0 0.0 16 ------- null}
+ -t 0.22384 -s 1 -d 0 -p ack -e 40 -c 0 -i 45 -a 0 -x {2.0 0.0 16 ------- null}
- -t 0.22384 -s 1 -d 0 -p ack -e 40 -c 0 -i 45 -a 0 -x {2.0 0.0 16 ------- null}
h -t 0.22384 -s 1 -d 0 -p ack -e 40 -c 0 -i 45 -a 0 -x {2.0 0.0 -1 ------- null}
r -t 0.22384 -s 1 -d 0 -p ack -e 40 -c 0 -i 42 -a 0 -x {2.0 0.0 15 ------- null}
+ -t 0.22384 -s 0 -d 1 -p tcp -e 1040 -c 0 -i 49 -a 0 -x {0.0 2.0 31 ------- null}
+ -t 0.22384 -s 0 -d 1 -p tcp -e 1040 -c 0 -i 50 -a 0 -x {0.0 2.0 32 ------- null}
r -t 0.224 -s 0 -d 1 -p tcp -e 1040 -c 0 -i 31 -a 0 -x {0.0 2.0 19 ------- null}
+ -t 0.224 -s 1 -d 2 -p tcp -e 1040 -c 0 -i 31 -a 0 -x {0.0 2.0 19 ------- null}
- -t 0.224 -s 1 -d 2 -p tcp -e 1040 -c 0 -i 31 -a 0 -x {0.0 2.0 19 ------- null}
h -t 0.224 -s 1 -d 2 -p tcp -e 1040 -c 0 -i 31 -a 0 -x {0.0 2.0 -1 ------- null}
- -t 0.22416 -s 0 -d 1 -p tcp -e 1040 -c 0 -i 34 -a 0 -x {0.0 2.0 21 ------- null}
h -t 0.22416 -s 0 -d 1 -p tcp -e 1040 -c 0 -i 34 -a 0 -x {0.0 2.0 -1 ------- null}
r -t 0.228 -s 1 -d 2 -p tcp -e 1040 -c 0 -i 29 -a 0 -x {0.0 2.0 18 ------- null}
+ -t 0.228 -s 2 -d 1 -p ack -e 40 -c 0 -i 51 -a 0 -x {2.0 0.0 18 ------- null}
- -t 0.228 -s 2 -d 1 -p ack -e 40 -c 0 -i 51 -a 0 -x {2.0 0.0 18 ------- null}
h -t 0.228 -s 2 -d 1 -p ack -e 40 -c 0 -i 51 -a 0 -x {2.0 0.0 -1 ------- null}
r -t 0.228 -s 2 -d 1 -p ack -e 40 -c 0 -i 48 -a 0 -x {2.0 0.0 17 ------- null}
+ -t 0.228 -s 1 -d 0 -p ack -e 40 -c 0 -i 48 -a 0 -x {2.0 0.0 17 ------- null}
- -t 0.228 -s 1 -d 0 -p ack -e 40 -c 0 -i 48 -a 0 -x {2.0 0.0 17 ------- null}
h -t 0.228 -s 1 -d 0 -p ack -e 40 -c 0 -i 48 -a 0 -x {2.0 0.0 -1 ------- null}
r -t 0.228 -s 1 -d 0 -p ack -e 40 -c 0 -i 45 -a 0 -x {2.0 0.0 16 ------- null}
+ -t 0.228 -s 0 -d 1 -p tcp -e 1040 -c 0 -i 52 -a 0 -x {0.0 2.0 33 ------- null}
+ -t 0.228 -s 0 -d 1 -p tcp -e 1040 -c 0 -i 53 -a 0 -x {0.0 2.0 34 ------- null}
r -t 0.22816 -s 0 -d 1 -p tcp -e 1040 -c 0 -i 32 -a 0 -x {0.0 2.0 20 ------- null}
+ -t 0.22816 -s 1 -d 2 -p tcp -e 1040 -c 0 -i 32 -a 0 -x {0.0 2.0 20 ------- null}
- -t 0.22816 -s 1 -d 2 -p tcp -e 1040 -c 0 -i 32 -a 0 -x {0.0 2.0 20 ------- null}
h -t 0.22816 -s 1 -d 2 -p tcp -e 1040 -c 0 -i 32 -a 0 -x {0.0 2.0 -1 ------- null}
- -t 0.22832 -s 0 -d 1 -p tcp -e 1040 -c 0 -i 35 -a 0 -x {0.0 2.0 22 ------- null}
h -t 0.22832 -s 0 -d 1 -p tcp -e 1040 -c 0 -i 35 -a 0 -x {0.0 2.0 -1 ------- null}
r -t 0.23216 -s 1 -d 2 -p tcp -e 1040 -c 0 -i 31 -a 0 -x {0.0 2.0 19 ------- null}
+ -t 0.23216 -s 2 -d 1 -p ack -e 40 -c 0 -i 54 -a 0 -x {2.0 0.0 19 ------- null}
- -t 0.23216 -s 2 -d 1 -p ack -e 40 -c 0 -i 54 -a 0 -x {2.0 0.0 19 ------- null}
h -t 0.23216 -s 2 -d 1 -p ack -e 40 -c 0 -i 54 -a 0 -x {2.0 0.0 -1 ------- null}
r -t 0.23216 -s 2 -d 1 -p ack -e 40 -c 0 -i 51 -a 0 -x {2.0 0.0 18 ------- null}
+ -t 0.23216 -s 1 -d 0 -p ack -e 40 -c 0 -i 51 -a 0 -x {2.0 0.0 18 ------- null}
- -t 0.23216 -s 1 -d 0 -p ack -e 40 -c 0 -i 51 -a 0 -x {2.0 0.0 18 ------- null}
h -t 0.23216 -s 1 -d 0 -p ack -e 40 -c 0 -i 51 -a 0 -x {2.0 0.0 -1 ------- null}
r -t 0.23216 -s 1 -d 0 -p ack -e 40 -c 0 -i 48 -a 0 -x {2.0 0.0 17 ------- null}
+ -t 0.23216 -s 0 -d 1 -p tcp -e 1040 -c 0 -i 55 -a 0 -x {0.0 2.0 35 ------- null}
+ -t 0.23216 -s 0 -d 1 -p tcp -e 1040 -c 0 -i 56 -a 0 -x {0.0 2.0 36 ------- null}
r -t 0.23232 -s 0 -d 1 -p tcp -e 1040 -c 0 -i 34 -a 0 -x {0.0 2.0 21 ------- null}
+ -t 0.23232 -s 1 -d 2 -p tcp -e 1040 -c 0 -i 34 -a 0 -x {0.0 2.0 21 ------- null}
- -t 0.23232 -s 1 -d 2 -p tcp -e 1040 -c 0 -i 34 -a 0 -x {0.0 2.0 21 ------- null}
h -t 0.23232 -s 1 -d 2 -p tcp -e 1040 -c 0 -i 34 -a 0 -x {0.0 2.0 -1 ------- null}
- -t 0.23248 -s 0 -d 1 -p tcp -e 1040 -c 0 -i 37 -a 0 -x {0.0 2.0 23 ------- null}
h -t 0.23248 -s 0 -d 1 -p tcp -e 1040 -c 0 -i 37 -a 0 -x {0.0 2.0 -1 ------- null}
r -t 0.23632 -s 1 -d 2 -p tcp -e 1040 -c 0 -i 32 -a 0 -x {0.0 2.0 20 ------- null}
+ -t 0.23632 -s 2 -d 1 -p ack -e 40 -c 0 -i 57 -a 0 -x {2.0 0.0 20 ------- null}
- -t 0.23632 -s 2 -d 1 -p ack -e 40 -c 0 -i 57 -a 0 -x {2.0 0.0 20 ------- null}
h -t 0.23632 -s 2 -d 1 -p ack -e 40 -c 0 -i 57 -a 0 -x {2.0 0.0 -1 ------- null}
r -t 0.23632 -s 2 -d 1 -p ack -e 40 -c 0 -i 54 -a 0 -x {2.0 0.0 19 ------- null}
+ -t 0.23632 -s 1 -d 0 -p ack -e 40 -c 0 -i 54 -a 0 -x {2.0 0.0 19 ------- null}
- -t 0.23632 -s 1 -d 0 -p ack -e 40 -c 0 -i 54 -a 0 -x {2.0 0.0 19 ------- null}
h -t 0.23632 -s 1 -d 0 -p ack -e 40 -c 0 -i 54 -a 0 -x {2.0 0.0 -1 ------- null}
r -t 0.23632 -s 1 -d 0 -p ack -e 40 -c 0 -i 51 -a 0 -x {2.0 0.0 18 ------- null}
+ -t 0.23632 -s 0 -d 1 -p tcp -e 1040 -c 0 -i 58 -a 0 -x {0.0 2.0 37 ------- null}
+ -t 0.23632 -s 0 -d 1 -p tcp -e 1040 -c 0 -i 59 -a 0 -x {0.0 2.0 38 ------- null}
r -t 0.23648 -s 0 -d 1 -p tcp -e 1040 -c 0 -i 35 -a 0 -x {0.0 2.0 22 ------- null}
+ -t 0.23648 -s 1 -d 2 -p tcp -e 1040 -c 0 -i 35 -a 0 -x {0.0 2.0 22 ------- null}
- -t 0.23648 -s 1 -d 2 -p tcp -e 1040 -c 0 -i 35 -a 0 -x {0.0 2.0 22 ------- null}
h -t 0.23648 -s 1 -d 2 -p tcp -e 1040 -c 0 -i 35 -a 0 -x {0.0 2.0 -1 ------- null}
- -t 0.23664 -s 0 -d 1 -p tcp -e 1040 -c 0 -i 38 -a 0 -x {0.0 2.0 24 ------- null}
h -t 0.23664 -s 0 -d 1 -p tcp -e 1040 -c 0 -i 38 -a 0 -x {0.0 2.0 -1 ------- null}