V -t * -v 1.0a5 -a 0
A -t * -n 1 -p 0 -o 0x7fffffff -c 30 -a 1
A -t * -h 1 -m 1073741823 -s 0
n -t * -a 0 -s 0 -S UP -v circle -c black -i black
n -t * -a 1 -s 1 -S UP -v circle -c black -i black
n -t * -a 2 -s 2 -S UP -v circle -c black -i black
l -t * -s 0 -d 1 -S UP -r 1000000 -D 0.002 -c black
l -t * -s 0 -d 2 -S UP -r 1000000 -D 0.002 -c black
+ -t 0.1 -s 0 -d 1 -p tcp -e 40 -c 0 -i 0 -a 0 -x {0.0 1.0 0 ------- null}
- -t 0.1 -s 0 -d 1 -p tcp -e 40 -c 0 -i 0 -a 0 -x {0.0 1.0 0 ------- null}
h -t 0.1 -s 0 -d 1 -p tcp -e 40 -c 0 -i 0 -a 0 -x {0.0 1.0 -1 ------- null}
+ -t 0.1 -s 0 -d 2 -p tcp -e 40 -c 0 -i 1 -a 0 -x {0.1 2.0 0 ------- null}
- -t 0.1 -s 0 -d 2 -p tcp -e 40 -c 0 -i 1 -a 0 -x {0.1 2.0 0 ------- null}
h -t 0.1 -s 0 -d 2 -p tcp -e 40 -c 0 -i 1 -a 0 -x {0.1 2.0 -1 ------- null}
r -t 0.10232 -s 0 -d 1 -p tcp -e 40 -c 0 -i 0 -a 0 -x {0.0 1.0 0 ------- null}
+ -t 0.10232 -s 1 -d 0 -p ack -e 40 -c 0 -i 2 -a 0 -x {1.0 0.0 0 ------- null}
- -t 0.10232 -s 1 -d 0 -p ack -e 40 -c 0 -i 2 -a 0 -x {1.0 0.0 0 ------- null}
h -t 0.10232 -s 1 -d 0 -p ack -e 40 -c 0 -i 2 -a 0 -x {1.0 0.0 -1 ------- null}
r -t 0.10232 -s 0 -d 2 -p tcp -e 40 -c 0 -i 1 -a 0 -x {0.1 2.0 0 ------- null}
+ -t 0.10232 -s 2 -d 0 -p ack -e 40 -c 0 -i 3 -a 0 -x {2.0 0.1 0 ------- null}
- -t 0.10232 -s 2 -d 0 -p ack -e 40 -c 0 -i 3 -a 0 -x {2.0 0.1 0 ------- null}
h -t 0.10232 -s 2 -d 0 -p ack -e 40 -c 0 -i 3 -a 0 -x {2.0 0.1 -1 ------- null}
r -t 0.10464 -s 1 -d 0 -p ack -e 40 -c 0 -i 2 -a 0 -x {1.0 0.0 0 ------- null}
+ -t 0.10464 -s 0 -d 1 -p tcp -e 1040 -c 0 -i 4 -a 0 -x {0.0 1.0 1 ------- null}
- -t 0.10464 -s 0 -d 1 -p tcp -e 1040 -c 0 -i 4 -a 0 -x {0.0 1.0 1 ------- null}
h -t 0.10464 -s 0 -d 1 -p tcp -e 1040 -c 0 -i 4 -a 0 -x {0.0 1.0 -1 ------- null}
+ -t 0.10464 -s 0 -d 1 -p tcp -e 1040 -c 0 -i 5 -a 0 -x {0.0 1.0 2 ------- null}
r -t 0.10464 -s 2 -d 0 -p ack -e 40 -c 0 -i 3 -a 0 -x {2.0 0.1 0 ------- null}
+ -t 0.10464 -s 0 -d 2 -p tcp -e 1040 -c 0 -i 6 -a 0 -x {0.1 2.0 1 ------- null}
- -t 0.10464 -s 0 -d 2 -p tcp -e 1040 -c 0 -i 6 -a 0 -x {0.1 2.0 1 ------- null}
h -t 0.10464 -s 0 -d 2 -p tcp -e 1040 -c 0 -i 6 -a 0 -x {0.1 2.0 -1 ------- null}
+ -t 0.10464 -s 0 -d 2 -p tcp -e 1040 -c 0 -i 7 -a 0 -x {0.1 2.0 2 ------- null}
- -t 0.11296 -s 0 -d 1 -p tcp -e 1040 -c 0 -i 5 -a 0 -x {0.0 1.0 2 ------- null}
h -t 0.11296 -s 0 -d 1 -p tcp -e 1040 -c 0 -i 5 -a 0 -x {0.0 1.0 -1 ------- null}
- -t 0.11296 -s 0 -d 2 -p tcp -e 1040 -c 0 -i 7 -a 0 -x {0.1 2.0 2 ------- null}
h -t 0.11296 -s 0 -d 2 -p tcp -e 1040 -c 0 -i 7 -a 0 -x {0.1 2.0 -1 ------- null}
r -t 0.11496 -s 0 -d 1 -p tcp -e 1040 -c 0 -i 4 -a 0 -x {0.0 1.0 1 ------- null}
+ -t 0.11496 -s 1 -d 0 -p ack -e 40 -c 0 -i 8 -a 0 -x {1.0 0.0 1 ------- null}
- -t 0.11496 -s 1 -d 0 -p ack -e 40 -c 0 -i 8 -a 0 -x {1.0 0.0 1 ------- null}
h -t 0.11496 -s 1 -d 0 -p ack -e 40 -c 0 -i 8 -a 0 -x {1.0 0.0 -1 ------- null}
r -t 0.11496 -s 0 -d 2 -p tcp -e 1040 -c 0 -i 6 -a 0 -x {0.1 2.0 1 ------- null}
+ -t 0.11496 -s 2 -d 0 -p ack -e 40 -c 0 -i 9 -a 0 -x {2.0 0.1 1 ------- null}
- -t 0.11496 -s 2 -d 0 -p ack -e 40 -c 0 -i 9 -a 0 -x {2.0 0.1 1 ------- null}
h -t 0.11496 -s 2 -d 0 -p ack -e 40 -c 0 -i 9 -a 0 -x {2.0 0.1 -1 ------- null}
r -t 0.11728 -s 1 -d 0 -p ack -e 40 -c 0 -i 8 -a 0 -x {1.0 0.0 1 ------- null}
+ -t 0.11728 -s 0 -d 1 -p tcp -e 1040 -c 0 -i 10 -a 0 -x {0.0 1.0 3 ------- null}
+ -t 0.11728 -s 0 -d 1 -p tcp -e 1040 -c 0 -i 11 -a 0 -x {0.0 1.0 4 ------- null}
r -t 0.11728 -s 2 -d 0 -p ack -e 40 -c 0 -i 9 -a 0 -x {2.0 0.1 1 ------- null}
+ -t 0.11728 -s 0 -d 2 -p tcp -e 1040 -c 0 -i 12 -a 0 -x {0.1 2.0 3 ------- null}
+ -t 0.11728 -s 0 -d 2 -p tcp -e 1040 -c 0 -i 13 -a 0 -x {0.1 2.0 4 ------- null}
- -t 0.12128 -s 0 -d 1 -p tcp -e 1040 -c 0 -i 10 -a 0 -x {0.0 1.0 3 ------- null}
h -t 0.12128 -s 0 -d 1 -p tcp -e 1040 -c 0 -i 10 -a 0 -x {0.0 1.0 -1 ------- null}
- -t 0.12128 -s 0 -d 2 -p tcp -e 1040 -c 0 -i 12 -a 0 -x {0.1 2.0 3 ------- null}
h -t 0.12128 -s 0 -d 2 -p tcp -e 1040 -c 0 -i 12 -a 0 -x {0.1 2.0 -1 ------- null}
r -t 0.12328 -s 0 -d 1 -p tcp -e 1040 -c 0 -i 5 -a 0 -x {0.0 1.0 2 ------- null}
+ -t 0.12328 -s 1 -d 0 -p ack -e 40 -c 0 -i 14 -a 0 -x {1.0 0.0 2 ------- null}
- -t 0.12328 -s 1 -d 0 -p ack -e 40 -c 0 -i 14 -a 0 -x {1.0 0.0 2 ------- null}
h -t 0.12328 -s 1 -d 0 -p ack -e 40 -c 0 -i 14 -a 0 -x {1.0 0.0 -1 ------- null}
r -t 0.12328 -s 0 -d 2 -p tcp -e 1040 -c 0 -i 7 -a 0 -x {0.1 2.0 2 ------- null}
+ -t 0.12328 -s 2 -d 0 -p ack -e 40 -c 0 -i 15 -a 0 -x {2.0 0.1 2 ------- null}
- -t 0.12328 -s 2 -d 0 -p ack -e 40 -c 0 -i 15 -a 0 -x {2.0 0.1 2 ------- null}
h -t 0.12328 -s 2 -d 0 -p ack -e 40 -c 0 -i 15 -a 0 -x {2.0 0.1 -1 ------- null}
r -t 0.1256 -s 1 -d 0 -p ack -e 40 -c 0 -i 14 -a 0 -x {1.0 0.0 2 ------- null}
+ -t 0.1256 -s 0 -d 1 -p tcp -e 1040 -c 0 -i 16 -a 0 -x {0.0 1.0 5 ------- null}
+ -t 0.1256 -s 0 -d 1 -p tcp -e 1040 -c 0 -i 17 -a 0 -x {0.0 1.0 6 ------- null}
r -t 0.1256 -s 2 -d 0 -p ack -e 40 -c 0 -i 15 -a 0 -x {2.0 0.1 2 ------- null}
+ -t 0.1256 -s 0 -d 2 -p tcp -e 1040 -c 0 -i 18 -a 0 -x {0.1 2.0 5 ------- null}
+ -t 0.1256 -s 0 -d 2 -p tcp -e 1040 -c 0 -i 19 -a 0 -x {0.1 2.0 6 ------- null}
- -t 0.1296 -s 0 -d 1 -p tcp -e 1040 -c 0 -i 11 -a 0 -x {0.0 1.0 4 ------- null}
h -t 0.1296 -s 0 -d 1 -p tcp -e 1040 -c 0 -i 11 -a 0 -x {0.0 1.0 -1 ------- null}
- -t 0.1296 -s 0 -d 2 -p tcp -e 1040 -c 0 -i 13 -a 0 -x {0.1 2.0 4 ------- null}
h -t 0.1296 -s 0 -d 2 -p tcp -e 1040 -c 0 -i 13 -a 0 -x {0.1 2.0 -1 ------- null}
r -t 0.1316 -s 0 -d 1 -p tcp -e 1040 -c 0 -i 10 -a 0 -x {0.0 1.0 3 ------- null}
+ -t 0.1316 -s 1 -d 0 -p ack -e 40 -c 0 -i 20 -a 0 -x {1.0 0.0 3 ------- null}
- -t 0.1316 -s 1 -d 0 -p ack -e 40 -c 0 -i 20 -a 0 -x {1.0 0.0 3 ------- null}
h -t 0.1316 -s 1 -d 0 -p ack -e 40 -c 0 -i 20 -a 0 -x {1.0 0.0 -1 ------- null}
r -t 0.1316 -s 0 -d 2 -p tcp -e 1040 -c 0 -i 12 -a 0 -x {0.1 2.0 3 ------- null}
+ -t 0.1316 -s 2 -d 0 -p ack -e 40 -c 0 -i 21 -a 0 -x {2.0 0.1 3 ------- null}
- -t 0.1316 -s 2 -d 0 -p ack -e 40 -c 0 -i 21 -a 0 -x {2.0 0.1 3 ------- null}
h -t 0.1316 -s 2 -d 0 -p ack -e 40 -c 0 -i 21 -a 0 -x {2.0 0.1 -1 ------- null}
r -t 0.13392 -s 1 -d 0 -p ack -e 40 -c 0 -i 20 -a 0 -x {1.0 0.0 3 ------- null}
+ -t 0.13392 -s 0 -d 1 -p tcp -e 1040 -c 0 -i 22 -a 0 -x {0.0 1.0 7 ------- null}
+ -t 0.13392 -s 0 -d 1 -p tcp -e 1040 -c 0 -i 23 -a 0 -x {0.0 1.0 8 ------- null}
r -t 0.13392 -s 2 -d 0 -p ack -e 40 -c 0 -i 21 -a 0 -x {2.0 0.1 3 ------- null}
+ -t 0.13392 -s 0 -d 2 -p tcp -e 1040 -c 0 -i 24 -a 0 -x {0.1 2.0 7 ------- null}
+ -t 0.13392 -s 0 -d 2 -p tcp -e 1040 -c 0 -i 25 -a 0 -x {0.1 2.0 8 ------- null}
- -t 0.13792 -s 0 -d 1 -p tcp -e 1040 -c 0 -i 16 -a 0 -x {0.0 1.0 5 ------- null}
h -t 0.13792 -s 0 -d 1 -p tcp -e 1040 -c 0 -i 16 -a 0 -x {0.0 1.0 -1 ------- null}
- -t 0.13792 -s 0 -d 2 -p tcp -e 1040 -c 0 -i 18 -a 0 -x {0.1 2.0 5 ------- null}
h -t 0.13792 -s 0 -d 2 -p tcp -e 1040 -c 0 -i 18 -a 0 -x {0.1 2.0 -1 ------- null}
r -t 0.13992 -s 0 -d 1 -p tcp -e 1040 -c 0 -i 11 -a 0 -x {0.0 1.0 4 ------- null}
+ -t 0.13992 -s 1 -d 0 -p ack -e 40 -c 0 -i 26 -a 0 -x {1.0 0.0 4 ------- null}
- -t 0.13992 -s 1 -d 0 -p ack -e 40 -c 0 -i 26 -a 0 -x {1.0 0.0 4 ------- null}
h -t 0.13992 -s 1 -d 0 -p ack -e 40 -c 0 -i 26 -a 0 -x {1.0 0.0 -1 ------- null}
r -t 0.13992 -s 0 -d 2 -p tcp -e 1040 -c 0 -i 13 -a 0 -x {0.1 2.0 4 ------- null}
+ -t 0.13992 -s 2 -d 0 -p ack -e 40 -c 0 -i 27 -a 0 -x {2.0 0.1 4 ------- null}
- -t 0.13992 -s 2 -d 0 -p ack -e 40 -c 0 -i 27 -a 0 -x {2.0 0.1 4 ------- null}
h -t 0.13992 -s 2 -d 0 -p ack -e 40 -c 0 -i 27 -a 0 -x {2.0 0.1 -1 ------- null}
r -t 0.14224 -s 1 -d 0 -p ack -e 40 -c 0 -i 26 -a 0 -x {1.0 0.0 4 ------- null}
+ -t 0.14224 -s 0 -d 1 -p tcp -e 1040 -c 0 -i 28 -a 0 -x {0.0 1.0 9 ------- null}
+ -t 0.14224 -s 0 -d 1 -p tcp -e 1040 -c 0 -i 29 -a 0 -x {0.0 1.0 10 ------- null}
r -t 0.14224 -s 2 -d 0 -p ack -e 40 -c 0 -i 27 -a 0 -x {2.0 0.1 4 ------- null}
+ -t 0.14224 -s 0 -d 2 -p tcp -e 1040 -c 0 -i 30 -a 0 -x {0.1 2.0 9 ------- null}
+ -t 0.14224 -s 0 -d 2 -p tcp -e 1040 -c 0 -i 31 -a 0 -x {0.1 2.0 10 ------- null}
- -t 0.14624 -s 0 -d 1 -p tcp -e 1040 -c 0 -i 17 -a 0 -x {0.0 1.0 6 ------- null}
h -t 0.14624 -s 0 -d 1 -p tcp -e 1040 -c 0 -i 17 -a 0 -x {0.0 1.0 -1 ------- null}
- -t 0.14624 -s 0 -d 2 -p tcp -e 1040 -c 0 -i 19 -a 0 -x {0.1 2.0 6 ------- null}
h -t 0.14624 -s 0 -d 2 -p tcp -e 1040 -c 0 -i 19 -a 0 -x {0.1 2.0 -1 ------- null}
r -t 0.14824 -s 0 -d 1 -p tcp -e 1040 -c 0 -i 16 -a 0 -x {0.0 1.0 5 ------- null}
+ -t 0.14824 -s 1 -d 0 -p ack -e 40 -c 0 -i 32 -a 0 -x {1.0 0.0 5 ------- null}
- -t 0.14824 -s 1 -d 0 -p ack -e 40 -c 0 -i 32 -a 0 -x {1.0 0.0 5 ------- null}
h -t 0.14824 -s 1 -d 0 -p ack -e 40 -c 0 -i 32 -a 0 -x {1.0 0.0 -1 ------- null}
r -t 0.14824 -s 0 -d 2 -p tcp -e 1040 -c 0 -i 18 -a 0 -x {0.1 2.0 5 ------- null}
+ -t 0.14824 -s 2 -d 0 -p ack -e 40 -c 0 -i 33 -a 0 -x {2.0 0.1 5 ------- null}
- -t 0.14824 -s 2 -d 0 -p ack -e 40 -c 0 -i 33 -a 0 -x {2.0 0.1 5 ------- null}
h -t 0.14824 -s 2 -d 0 -p ack -e 40 -c 0 -i 33 -a 0 -x {2.0 0.1 -1 ------- null}
r -t 0.15056 -s 1 -d 0 -p ack -e 40 -c 0 -i 32 -a 0 -x {1.0 0.0 5 ------- null}
+ -t 0.15056 -s 0 -d 1 -p tcp -e 1040 -c 0 -i 34 -a 0 -x {0.0 1.0 11 ------- null}
+ -t 0.15056 -s 0 -d 1 -p tcp -e 1040 -c 0 -i 35 -a 0 -x {0.0 1.0 12 ------- null}
r -t 0.15056 -s 2 -d 0 -p ack -e 40 -c 0 -i 33 -a 0 -x {2.0 0.1 5 ------- null}
+ -t 0.15056 -s 0 -d 2 -p tcp -e 1040 -c 0 -i 36 -a 0 -x {0.1 2.0 11 ------- null}
+ -t 0.15056 -s 0 -d 2 -p tcp -e 1040 -c 0 -i 37 -a 0 -x {0.1 2.0 12 ------- null}
- -t 0.15456 -s 0 -d 1 -p tcp -e 1040 -c 0 -i 22 -a 0 -x {0.0 1.0 7 ------- null}
h -t 0.15456 -s 0 -d 1 -p tcp -e 1040 -c 0 -i 22 -a 0 -x {0.0 1.0 -1 ------- null}
- -t 0.15456 -s 0 -d 2 -p tcp -e 1040 -c 0 -i 24 -a 0 -x {0.1 2.0 7 ------- null}
h -t 0.15456 -s 0 -d 2 -p tcp -e 1040 -c 0 -i 24 -a 0 -x {0.1 2.0 -1 ------- null}
r -t 0.15656 -s 0 -d 1 -p tcp -e 1040 -c 0 -i 17 -a 0 -x {0.0 1.0 6 ------- null}
+ -t 0.15656 -s 1 -d 0 -p ack -e 40 -c 0 -i 38 -a 0 -x {1.0 0.0 6 ------- null}
- -t 0.15656 -s 1 -d 0 -p ack -e 40 -c 0 -i 38 -a 0 -x {1.0 0.0 6 ------- null}
h -t 0.15656 -s 1 -d 0 -p ack -e 40 -c 0 -i 38 -a 0 -x {1.0 0.0 -1 ------- null}
r -t 0.15656 -s 0 -d 2 -p tcp -e 1040 -c 0 -i 19 -a 0 -x {0.1 2.0 6 ------- null}
+ -t 0.15656 -s 2 -d 0 -p ack -e 40 -c 0 -i 39 -a 0 -x {2.0 0.1 6 ------- null}
- -t 0.15656 -s 2 -d 0 -p ack -e 40 -c 0 -i 39 -a 0 -x {2.0 0.1 6 ------- null}
h -t 0.15656 -s 2 -d 0 -p ack -e 40 -c 0 -i 39 -a 0 -x {2.0 0.1 -1 ------- null}
r -t 0.15888 -s 1 -d 0 -p ack -e 40 -c 0 -i 38 -a 0 -x {1.0 0.0 6 ------- null}
+ -t 0.15888 -s 0 -d 1 -p tcp -e 1040 -c 0 -i 40 -a 0 -x {0.0 1.0 13 ------- null}
+ -t 0.15888 -s 0 -d 1 -p tcp -e 1040 -c 0 -i 41 -a 0 -x {0.0 1.0 14 ------- null}
r -t 0.15888 -s 2 -d 0 -p ack -e 40 -c 0 -i 39 -a 0 -x {2.0 0.1 6 ------- null}
+ -t 0.15888 -s 0 -d 2 -p tcp -e 1040 -c 0 -i 42 -a 0 -x {0.1 2.0 13 ------- null}
+ -t 0.15888 -s 0 -d 2 -p tcp -e 1040 -c 0 -i 43 -a 0 -x {0.1 2.0 14 ------- null}
- -t 0.16288 -s 0 -d 1 -p tcp -e 1040 -c 0 -i 23 -a 0 -x {0.0 1.0 8 ------- null}
h -t 0.16288 -s 0 -d 1 -p tcp -e 1040 -c 0 -i 23 -a 0 -x {0.0 1.0 -1 ------- null}
- -t 0.16288 -s 0 -d 2 -p tcp -e 1040 -c 0 -i 25 -a 0 -x {0.1 2.0 8 ------- null}
h -t 0.16288 -s 0 -d 2 -p tcp -e 1040 -c 0 -i 25 -a 0 -x {0.1 2.0 -1 ------- null}
r -t 0.16488 -s 0 -d 1 -p tcp -e 1040 -c 0 -i 22 -a 0 -x {0.0 1.0 7 ------- null}
+ -t 0.16488 -s 1 -d 0 -p ack -e 40 -c 0 -i 44 -a 0 -x {1.0 0.0 7 ------- null}
- -t 0.16488 -s 1 -d 0 -p ack -e 40 -c 0 -i 44 -a 0 -x {1.0 0.0 7 ------- null}
h -t 0.16488 -s 1 -d 0 -p ack -e 40 -c 0 -i 44 -a 0 -x {1.0 0.0 -1 ------- null}
r -t 0.16488 -s 0 -d 2 -p tcp -e 1040 -c 0 -i 24 -a 0 -x {0.1 2.0 7 ------- null}
+ -t 0.16488 -s 2 -d 0 -p ack -e 40 -c 0 -i 45 -a 0 -x {2.0 0.1 7 ------- null}
- -t 0.16488 -s 2 -d 0 -p ack -e 40 -c 0 -i 45 -a 0 -x {2.0 0.1 7 ------- null}
h -t 0.16488 -s 2 -d 0 -p ack -e 40 -c 0 -i 45 -a 0 -x {2.0 0.1 -1 ------- null}
r -t 0.1672 -s 1 -d 0 -p ack -e 40 -c 0 -i 44 -a 0 -x {1.0 0.0 7 ------- null}
+ -t 0.1672 -s 0 -d 1 -p tcp -e 1040 -c 0 -i 46 -a 0 -x {0.0 1.0 15 ------- null}
+ -t 0.1672 -s 0 -d 1 -p tcp -e 1040 -c 0 -i 47 -a 0 -x {0.0 1.0 16 ------- null}
r -t 0.1672 -s 2 -d 0 -p ack -e 40 -c 0 -i 45 -a 0 -x {2.0 0.1 7 ------- null}
+ -t 0.1672 -s 0 -d 2 -p tcp -e 1040 -c 0 -i 48 -a 0 -x {0.1 2.0 15 ------- null}
+ -t 0.1672 -s 0 -d 2 -p tcp -e 1040 -c 0 -i 49 -a 0 -x {0.1 2.0 16 ------- null}
- -t 0.1712 -s 0 -d 1 -p tcp -e 1040 -c 0 -i 28 -a 0 -x {0.0 1.0 9 ------- null}
h -t 0.1712 -s 0 -d 1 -p tcp -e 1040 -c 0 -i 28 -a 0 -x {0.0 1.0 -1 ------- null}
- -t 0.1712 -s 0 -d 2 -p tcp -e 1040 -c 0 -i 30 -a 0 -x {0.1 2.0 9 ------- null}
h -t 0.1712 -s 0 -d 2 -p tcp -e 1040 -c 0 -i 30 -a 0 -x {0.1 2.0 -1 ------- null}
r -t 0.1732 -s 0 -d 1 -p tcp -e 1040 -c 0 -i 23 -a 0 -x {0.0 1.0 8 ------- null}
+ -t 0.1732 -s 1 -d 0 -p ack -e 40 -c 0 -i 50 -a 0 -x {1.0 0.0 8 ------- null}
- -t 0.1732 -s 1 -d 0 -p ack -e 40 -c 0 -i 50 -a 0 -x {1.0 0.0 8 ------- null}
h -t 0.1732 -s 1 -d 0 -p ack -e 40 -c 0 -i 50 -a 0 -x {1.0 0.0 -1 ------- null}
r -t 0.1732 -s 0 -d 2 -p tcp -e 1040 -c 0 -i 25 -a 0 -x {0.1 2.0 8 ------- null}
+ -t 0.1732 -s 2 -d 0 -p ack -e 40 -c 0 -i 51 -a 0 -x {2.0 0.1 8 ------- null}
- -t 0.1732 -s 2 -d 0 -p ack -e 40 -c 0 -i 51 -a 0 -x {2.0 0.1 8 ------- null}
h -t 0.1732 -s 2 -d 0 -p ack -e 40 -c 0 -i 51 -a 0 -x {2.0 0.1 -1 ------- null}
r -t 0.17552 -s 1 -d 0 -p ack -e 40 -c 0 -i 50 -a 0 -x {1.0 0.0 8 ------- null}
+ -t 0.17552 -s 0 -d 1 -p tcp -e 1040 -c 0 -i 52 -a 0 -x {0.0 1.0 17 ------- null}
+ -t 0.17552 -s 0 -d 1 -p tcp -e 1040 -c 0 -i 53 -a 0 -x {0.0 1.0 18 ------- null}
r -t 0.17552 -s 2 -d 0 -p ack -e 40 -c 0 -i 51 -a 0 -x {2.0 0.1 8 ------- null}
+ -t 0.17552 -s 0 -d 2 -p tcp -e 1040 -c 0 -i 54 -a 0 -x {0.1 2.0 17 ------- null}
+ -t 0.17552 -s 0 -d 2 -p tcp -e 1040 -c 0 -i 55 -a 0 -x {0.1 2.0 18 ------- null}
- -t 0.17952 -s 0 -d 1 -p tcp -e 1040 -c 0 -i 29 -a 0 -x {0.0 1.0 10 ------- null}
h -t 0.17952 -s 0 -d 1 -p tcp -e 1040 -c 0 -i 29 -a 0 -x {0.0 1.0 -1 ------- null}
- -t 0.17952 -s 0 -d 2 -p tcp -e 1040 -c 0 -i 31 -a 0 -x {0.1 2.0 10 ------- null}
h -t 0.17952 -s 0 -d 2 -p tcp -e 1040 -c 0 -i 31 -a 0 -x {0.1 2.0 -1 ------- null}
r -t 0.18152 -s 0 -d 1 -p tcp -e 1040 -c 0 -i 28 -a 0 -x {0.0 1.0 9 ------- null}
+ -t 0.18152 -s 1 -d 0 -p ack -e 40 -c 0 -i 56 -a 0 -x {1.0 0.0 9 ------- null}
- -t 0.18152 -s 1 -d 0 -p ack -e 40 -c 0 -i 56 -a 0 -x {1.0 0.0 9 ------- null}
h -t 0.18152 -s 1 -d 0 -p ack -e 40 -c 0 -i 56 -a 0 -x {1.0 0.0 -1 ------- null}
r -t 0.18152 -s 0 -d 2 -p tcp -e 1040 -c 0 -i 30 -a 0 -x {0.1 2.0 9 ------- null}
+ -t 0.18152 -s 2 -d 0 -p ack -e 40 -c 0 -i 57 -a 0 -x {2.0 0.1 9 ------- null}
- -t 0.18152 -s 2 -d 0 -p ack -e 40 -c 0 -i 57 -a 0 -x {2.0 0.1 9 ------- null}
h -t 0.18152 -s 2 -d 0 -p ack -e 40 -c 0 -i 57 -a 0 -x {2.0 0.1 -1 ------- null}
r -t 0.18384 -s 1 -d 0 -p ack -e 40 -c 0 -i 56 -a 0 -x {1.0 0.0 9 ------- null}
+ -t 0.18384 -s 0 -d 1 -p tcp -e 1040 -c 0 -i 58 -a 0 -x {0.0 1.0 19 ------- null}
+ -t 0.18384 -s 0 -d 1 -p tcp -e 1040 -c 0 -i 59 -a 0 -x {0.0 1.0 20 ------- null}
r -t 0.18384 -s 2 -d 0 -p ack -e 40 -c 0 -i 57 -a 0 -x {2.0 0.1 9 ------- null}
+ -t 0.18384 -s 0 -d 2 -p tcp -e 1040 -c 0 -i 60 -a 0 -x {0.1 2.0 19 ------- null}
+ -t 0.18384 -s 0 -d 2 -p tcp -e 1040 -c 0 -i 61 -a 0 -x {0.1 2.0 20 ------- null}
- -t 0.18784 -s 0 -d 1 -p tcp -e 1040 -c 0 -i 34 -a 0 -x {0.0 1.0 11 ------- null}
h -t 0.18784 -s 0 -d 1 -p tcp -e 1040 -c 0 -i 34 -a 0 -x {0.0 1.0 -1 ------- null}
- -t 0.18784 -s 0 -d 2 -p tcp -e 1040 -c 0 -i 36 -a 0 -x {0.1 2.0 11 ------- null}
h -t 0.18784 -s 0 -d 2 -p tcp -e 1040 -c 0 -i 36 -a 0 -x {0.1 2.0 -1 ------- null}
r -t 0.18984 -s 0 -d 1 -p tcp -e 1040 -c 0 -i 29 -a 0 -x {0.0 1.0 10 ------- null}
+ -t 0.18984 -s 1 -d 0 -p ack -e 40 -c 0 -i 62 -a 0 -x {1.0 0.0 10 ------- null}
- -t 0.18984 -s 1 -d 0 -p ack -e 40 -c 0 -i 62 -a 0 -x {1.0 0.0 10 ------- null}
h -t 0.18984 -s 1 -d 0 -p ack -e 40 -c 0 -i 62 -a 0 -x {1.0 0.0 -1 ------- null}
r -t 0.18984 -s 0 -d 2 -p tcp -e 1040 -c 0 -i 31 -a 0 -x {0.1 2.0 10 ------- null}
+ -t 0.18984 -s 2 -d 0 -p ack -e 40 -c 0 -i 63 -a 0 -x {2.0 0.1 10 ------- null}
- -t 0.18984 -s 2 -d 0 -p ack -e 40 -c 0 -i 63 -a 0 -x {2.0 0.1 10 ------- null}
h -t 0.18984 -s 2 -d 0 -p ack -e 40 -c 0 -i 63 -a 0 -x {2.0 0.1 -1 ------- null}
r -t 0.19216 -s 1 -d 0 -p ack -e 40 -c 0 -i 62 -a 0 -x {1.0 0.0 10 ------- null}
+ -t 0.19216 -s 0 -d 1 -p tcp -e 1040 -c 0 -i 64 -a 0 -x {0.0 1.0 21 ------- null}
+ -t 0.19216 -s 0 -d 1 -p tcp -e 1040 -c 0 -i 65 -a 0 -x {0.0 1.0 22 ------- null}
r -t 0.19216 -s 2 -d 0 -p ack -e 40 -c 0 -i 63 -a 0 -x {2.0 0.1 10 ------- null}
+ -t 0.19216 -s 0 -d 2 -p tcp -e 1040 -c 0 -i 66 -a 0 -x {0.1 2.0 21 ------- null}
+ -t 0.19216 -s 0 -d 2 -p tcp -e 1040 -c 0 -i 67 -a 0 -x {0.1 2.0 22 ------- null}
- -t 0.19616 -s 0 -d 1 -p tcp -e 1040 -c 0 -i 35 -a 0 -x {0.0 1.0 12 ------- null}
h -t 0.19616 -s 0 -d 1 -p tcp -e 1040 -c 0 -i 35 -a 0 -x {0.0 1.0 -1 ------- null}
- -t 0.19616 -s 0 -d 2 -p tcp -e 1040 -c 0 -i 37 -a 0 -x {0.1 2.0 12 ------- null}
h -t 0.19616 -s 0 -d 2 -p tcp -e 1040 -c 0 -i 37 -a 0 -x {0.1 2.0 -1 ------- null}
r -t 0.19816 -s 0 -d 1 -p tcp -e 1040 -c 0 -i 34 -a 0 -x {0.0 1.0 11 ------- null}
+ -t 0.19816 -s 1 -d 0 -p ack -e 40 -c 0 -i 68 -a 0 -x {1.0 0.0 11 ------- null}
- -t 0.19816 -s 1 -d 0 -p ack -e 40 -c 0 -i 68 -a 0 -x {1.0 0.0 11 ------- null}
h -t 0.19816 -s 1 -d 0 -p ack -e 40 -c 0 -i 68 -a 0 -x {1.0 0.0 -1 ------- null}
r -t 0.19816 -s 0 -d 2 -p tcp -e 1040 -c 0 -i 36 -a 0 -x {0.1 2.0 11 ------- null}
+ -t 0.19816 -s 2 -d 0 -p ack -e 40 -c 0 -i 69 -a 0 -x {2.0 0.1 11 ------- null}
- -t 0.19816 -s 2 -d 0 -p ack -e 40 -c 0 -i 69 -a 0 -x {2.0 0.1 11 ------- null}
h -t 0.19816 -s 2 -d 0 -p ack -e 40 -c 0 -i 69 -a 0 -x {2.0 0.1 -1 ------- null}
r -t 0.20048 -s 1 -d 0 -p ack -e 40 -c 0 -i 68 -a 0 -x {1.0 0.0 11 ------- null}
+ -t 0.20048 -s 0 -d 1 -p tcp -e 1040 -c 0 -i 70 -a 0 -x {0.0 1.0 23 ------- null}
+ -t 0.20048 -s 0 -d 1 -p tcp -e 1040 -c 0 -i 71 -a 0 -x {0.0 1.0 24 ------- null}
r -t 0.20048 -s 2 -d 0 -p ack -e 40 -c 0 -i 69 -a 0 -x {2.0 0.1 11 ------- null}
+ -t 0.20048 -s 0 -d 2 -p tcp -e 1040 -c 0 -i 72 -a 0 -x {0.1 2.0 23 ------- null}
+ -t 0.20048 -s 0 -d 2 -p tcp -e 1040 -c 0 -i 73 -a 0 -x {0.1 2.0 24 ------- null}
- -t 0.20448 -s 0 -d 1 -p tcp -e 1040 -c 0 -i 40 -a 0 -x {0.0 1.0 13 ------- null}
h -t 0.20448 -s 0 -d 1 -p tcp -e 1040 -c 0 -i 40 -a 0 -x {0.0 1.0 -1 ------- null}
- -t 0.20448 -s 0 -d 2 -p tcp -e 1040 -c 0 -i 42 -a 0 -x {0.1 2.0 13 ------- null}
h -t 0.20448 -s 0 -d 2 -p tcp -e 1040 -c 0 -i 42 -a 0 -x {0.1 2.0 -1 ------- null}
r -t 0.20648 -s 0 -d 1 -p tcp -e 1040 -c 0 -i 35 -a 0 -x {0.0 1.0 12 ------- null}
+ -t 0.20648 -s 1 -d 0 -p ack -e 40 -c 0 -i 74 -a 0 -x {1.0 0.0 12 ------- null}
- -t 0.20648 -s 1 -d 0 -p ack -e 40 -c 0 -i 74 -a 0 -x {1.0 0.0 12 ------- null}
h -t 0.20648 -s 1 -d 0 -p ack -e 40 -c 0 -i 74 -a 0 -x {1.0 0.0 -1 ------- null}
r -t 0.20648 -s 0 -d 2 -p tcp -e 1040 -c 0 -i 37 -a 0 -x {0.1 2.0 12 ------- null}
+ -t 0.20648 -s 2 -d 0 -p ack -e 40 -c 0 -i 75 -a 0 -x {2.0 0.1 12 ------- null}
- -t 0.20648 -s 2 -d 0 -p ack -e 40 -c 0 -i 75 -a 0 -x {2.0 0.1 12 ------- null}
h -t 0.20648 -s 2 -d 0 -p ack -e 40 -c 0 -i 75 -a 0 -x {2.0 0.1 -1 ------- null}
r -t 0.2088 -s 1 -d 0 -p ack -e 40 -c 0 -i 74 -a 0 -x {1.0 0.0 12 ------- null}
+ -t 0.2088 -s 0 -d 1 -p tcp -e 1040 -c 0 -i 76 -a 0 -x {0.0 1.0 25 ------- null}
+ -t 0.2088 -s 0 -d 1 -p tcp -e 1040 -c 0 -i 77 -a 0 -x {0.0 1.0 26 ------- null}
r -t 0.2088 -s 2 -d 0 -p ack -e 40 -c 0 -i 75 -a 0 -x {2.0 0.1 12 ------- null}
+ -t 0.2088 -s 0 -d 2 -p tcp -e 1040 -c 0 -i 78 -a 0 -x {0.1 2.0 25 ------- null}
+ -t 0.2088 -s 0 -d 2 -p tcp -e 1040 -c 0 -i 79 -a 0 -x {0.1 2.0 26 ------- null}
- -t 0.2128 -s 0 -d 1 -p tcp -e 1040 -c 0 -i 41 -a 0 -x {0.0 1.0 14 ------- null}
h -t 0.2128 -s 0 -d 1 -p tcp -e 1040 -c 0 -i 41 -a 0 -x {0.0 1.0 -1 ------- null}
- -t 0.2128 -s 0 -d 2 -p tcp -e 1040 -c 0 -i 43 -a 0 -x {0.1 2.0 14 ------- null}
h -t 0.2128 -s 0 -d 2 -p tcp -e 1040 -c 0 -i 43 -a 0 -x {0.1 2.0 -1 ------- null}
r -t 0.2148 -s 0 -d 1 -p tcp -e 1040 -c 0 -i 40 -a 0 -x {0.0 1.0 13 ------- null}
+ -t 0.2148 -s 1 -d 0 -p ack -e 40 -c 0 -i 80 -a 0 -x {1.0 0.0 13 ------- null}
- -t 0.2148 -s 1 -d 0 -p ack -e 40 -c 0 -i 80 -a 0 -x {1.0 0.0 13 ------- null}
h -t 0.2148 -s 1 -d 0 -p ack -e 40 -c 0 -i 80 -a 0 -x {1.0 0.0 -1 ------- null}
r -t 0.2148 -s 0 -d 2 -p tcp -e 1040 -c 0 -i 42 -a 0 -x {0.1 2.0 13 ------- null}
+ -t 0.2148 -s 2 -d 0 -p ack -e 40 -c 0 -i 81 -a 0 -x {2.0 0.1 13 ------- null}
- -t 0.2148 -s 2 -d 0 -p ack -e 40 -c 0 -i 81 -a 0 -x {2.0 0.1 13 ------- null}
h -t 0.2148 -s 2 -d 0 -p ack -e 40 -c 0 -i 81 -a 0 -x {2.0 0.1 -1 ------- null}
r -t 0.21712 -s 1 -d 0 -p ack -e 40 -c 0 -i 80 -a 0 -x {1.0 0.0 13 ------- null}
+ -t 0.21712 -s 0 -d 1 -p tcp -e 1040 -c 0 -i 82 -a 0 -x {0.0 1.0 27 ------- null}
+ -t 0.21712 -s 0 -d 1 -p tcp -e 1040 -c 0 -i 83 -a 0 -x {0.0 1.0 28 ------- null}
r -t 0.21712 -s 2 -d 0 -p ack -e 40 -c 0 -i 81 -a 0 -x {2.0 0.1 13 ------- null}
+ -t 0.21712 -s 0 -d 2 -p tcp -e 1040 -c 0 -i 84 -a 0 -x {0.1 2.0 27 ------- null}
+ -t 0.21712 -s 0 -d 2 -p tcp -e 1040 -c 0 -i 85 -a 0 -x {0.1 2.0 28 ------- null}
- -t 0.22112 -s 0 -d 1 -p tcp -e 1040 -c 0 -i 46 -a 0 -x {0.0 1.0 15 ------- null}
h -t 0.22112 -s 0 -d 1 -p tcp -e 1040 -c 0 -i 46 -a 0 -x {0.0 1.0 -1 ------- null}
- -t 0.22112 -s 0 -d 2 -p tcp -e 1040 -c 0 -i 48 -a 0 -x {0.1 2.0 15 ------- null}
h -t 0.22112 -s 0 -d 2 -p tcp -e 1040 -c 0 -i 48 -a 0 -x {0.1 2.0 -1 ------- null}
r -t 0.22312 -s 0 -d 1 -p tcp -e 1040 -c 0 -i 41 -a 0 -x {0.0 1.0 14 ------- null}
+ -t 0.22312 -s 1 -d 0 -p ack -e 40 -c 0 -i 86 -a 0 -x {1.0 0.0 14 ------- null}
- -t 0.22312 -s 1 -d 0 -p ack -e 40 -c 0 -i 86 -a 0 -x {1.0 0.0 14 ------- null}
h -t 0.22312 -s 1 -d 0 -p ack -e 40 -c 0 -i 86 -a 0 -x {1.0 0.0 -1 ------- null}
r -t 0.22312 -s 0 -d 2 -p tcp -e 1040 -c 0 -i 43 -a 0 -x {0.1 2.0 14 ------- null}
+ -t 0.22312 -s 2 -d 0 -p ack -e 40 -c 0 -i 87 -a 0 -x {2.0 0.1 14 ------- null}
- -t 0.22312 -s 2 -d 0 -p ack -e 40 -c 0 -i 87 -a 0 -x {2.0 0.1 14 ------- null}
h -t 0.22312 -s 2 -d 0 -p ack -e 40 -c 0 -i 87 -a 0 -x {2.0 0.1 -1 ------- null}
r -t 0.22544 -s 1 -d 0 -p ack -e 40 -c 0 -i 86 -a 0 -x {1.0 0.0 14 ------- null}
+ -t 0.22544 -s 0 -d 1 -p tcp -e 1040 -c 0 -i 88 -a 0 -x {0.0 1.0 29 ------- null}
+ -t 0.22544 -s 0 -d 1 -p tcp -e 1040 -c 0 -i 89 -a 0 -x {0.0 1.0 30 ------- null}
r -t 0.22544 -s 2 -d 0 -p ack -e 40 -c 0 -i 87 -a 0 -x {2.0 0.1 14 ------- null}
+ -t 0.22544 -s 0 -d 2 -p tcp -e 1040 -c 0 -i 90 -a 0 -x {0.1 2.0 29 ------- null}
+ -t 0.22544 -s 0 -d 2 -p tcp -e 1040 -c 0 -i 91 -a 0 -x {0.1 2.0 30 ------- null}
- -t 0.22944 -s 0 -d 1 -p tcp -e 1040 -c 0 -i 47 -a 0 -x {0.0 1.0 16 ------- null}
h -t 0.22944 -s 0 -d 1 -p tcp -e 1040 -c 0 -i 47 -a 0 -x {0.0 1.0 -1 ------- null}
- -t 0.22944 -s 0 -d 2 -p tcp -e 1040 -c 0 -i 49 -a 0 -x {0.1 2.0 16 ------- null}
h -t 0.22944 -s 0 -d 2 -p tcp -e 1040 -c 0 -i 49 -a 0 -x {0.1 2.0 -1 ------- null}
r -t 0.23144 -s 0 -d 1 -p tcp -e 1040 -c 0 -i 46 -a 0 -x {0.0 1.0 15 ------- null}
+ -t 0.23144 -s 1 -d 0 -p ack -e 40 -c 0 -i 92 -a 0 -x {1.0 0.0 15 ------- null}
- -t 0.23144 -s 1 -d 0 -p ack -e 40 -c 0 -i 92 -a 0 -x {1.0 0.0 15 ------- null}
h -t 0.23144 -s 1 -d 0 -p ack -e 40 -c 0 -i 92 -a 0 -x {1.0 0.0 -1 ------- null}
r -t 0.23144 -s 0 -d 2 -p tcp -e 1040 -c 0 -i 48 -a 0 -x {0.1 2.0 15 ------- null}
+ -t 0.23144 -s 2 -d 0 -p ack -e 40 -c 0 -i 93 -a 0 -x {2.0 0.1 15 ------- null}
- -t 0.23144 -s 2 -d 0 -p ack -e 40 -c 0 -i 93 -a 0 -x {2.0 0.1 15 ------- null}
h -t 0.23144 -s 2 -d 0 -p ack -e 40 -c 0 -i 93 -a 0 -x {2.0 0.1 -1 ------- null}
r -t 0.23376 -s 1 -d 0 -p ack -e 40 -c 0 -i 92 -a 0 -x {1.0 0.0 15 ------- null}
+ -t 0.23376 -s 0 -d 1 -p tcp -e 1040 -c 0 -i 94 -a 0 -x {0.0 1.0 31 ------- null}
+ -t 0.23376 -s 0 -d 1 -p tcp -e 1040 -c 0 -i 95 -a 0 -x {0.0 1.0 32 ------- null}
r -t 0.23376 -s 2 -d 0 -p ack -e 40 -c 0 -i 93 -a 0 -x {2.0 0.1 15 ------- null}
+ -t 0.23376 -s 0 -d 2 -p tcp -e 1040 -c 0 -i 96 -a 0 -x {0.1 2.0 31 ------- null}
+ -t 0.23376 -s 0 -d 2 -p tcp -e 1040 -c 0 -i 97 -a 0 -x {0.1 2.0 32 ------- null}
- -t 0.23776 -s 0 -d 1 -p tcp -e 1040 -c 0 -i 52 -a 0 -x {0.0 1.0 17 ------- null}
h -t 0.23776 -s 0 -d 1 -p tcp -e 1040 -c 0 -i 52 -a 0 -x {0.0 1.0 -1 ------- null}
- -t 0.23776 -s 0 -d 2 -p tcp -e 1040 -c 0 -i 54 -a 0 -x {0.1 2.0 17 ------- null}
h -t 0.23776 -s 0 -d 2 -p tcp -e 1040 -c 0 -i 54 -a 0 -x {0.1 2.0 -1 ------- null}
r -t 0.23976 -s 0 -d 1 -p tcp -e 1040 -c 0 -i 47 -a 0 -x {0.0 1.0 16 ------- null}
+ -t 0.23976 -s 1 -d 0 -p ack -e 40 -c 0 -i 98 -a 0 -x {1.0 0.0 16 ------- null}
- -t 0.23976 -s 1 -d 0 -p ack -e 40 -c 0 -i 98 -a 0 -x {1.0 0.0 16 ------- null}
h -t 0.23976 -s 1 -d 0 -p ack -e 40 -c 0 -i 98 -a 0 -x {1.0 0.0 -1 ------- null}
r -t 0.23976 -s 0 -d 2 -p tcp -e 1040 -c 0 -i 49 -a 0 -x {0.1 2.0 16 ------- null}
+ -t 0.23976 -s 2 -d 0 -p ack -e 40 -c 0 -i 99 -a 0 -x {2.0 0.1 16 ------- null}
- -t 0.23976 -s 2 -d 0 -p ack -e 40 -c 0 -i 99 -a 0 -x {2.0 0.1 16 ------- null}
h -t 0.23976 -s 2 -d 0 -p ack -e 40 -c 0 -i 99 -a 0 -x {2.0 0.1 -1 ------- null}
r -t 0.24208 -s 1 -d 0 -p ack -e 40 -c 0 -i 98 -a 0 -x {1.0 0.0 16 ------- null}
+ -t 0.24208 -s 0 -d 1 -p tcp -e 1040 -c 0 -i 100 -a 0 -x {0.0 1.0 33 ------- null}
+ -t 0.24208 -s 0 -d 1 -p tcp -e 1040 -c 0 -i 101 -a 0 -x {0.0 1.0 34 ------- null}
r -t 0.24208 -s 2 -d 0 -p ack -e 40 -c 0 -i 99 -a 0 -x {2.0 0.1 16 ------- null}
+ -t 0.24208 -s 0 -d 2 -p tcp -e 1040 -c 0 -i 102 -a 0 -x {0.1 2.0 33 ------- null}
+ -t 0.24208 -s 0 -d 2 -p tcp -e 1040 -c 0 -i 103 -a 0 -x {0.1 2.0 34 ------- null}
- -t 0.24608 -s 0 -d 1 -p tcp -e 1040 -c 0 -i 53 -a 0 -x {0.0 1.0 18 ------- null}
h -t 0.24608 -s 0 -d 1 -p tcp -e 1040 -c 0 -i 53 -a 0 -x {0.0 1.0 -1 ------- null}
- -t 0.24608 -s 0 -d 2 -p tcp -e 1040 -c 0 -i 55 -a 0 -x {0.1 2.0 18 ------- null}
h -t 0.24608 -s 0 -d 2 -p tcp -e 1040 -c 0 -i 55 -a 0 -x {0.1 2.0 -1 ------- null}
r -t 0.24808 -s 0 -d 1 -p tcp -e 1040 -c 0 -i 52 -a 0 -x {0.0 1.0 17 ------- null}
+ -t 0.24808 -s 1 -d 0 -p ack -e 40 -c 0 -i 104 -a 0 -x {1.0 0.0 17 ------- null}
- -t 0.24808 -s 1 -d 0 -p ack -e 40 -c 0 -i 104 -a 0 -x {1.0 0.0 17 ------- null}
h -t 0.24808 -s 1 -d 0 -p ack -e 40 -c 0 -i 104 -a 0 -x {1.0 0.0 -1 ------- null}
r -t 0.24808 -s 0 -d 2 -p tcp -e 1040 -c 0 -i 54 -a 0 -x {0.1 2.0 17 ------- null}
+ -t 0.24808 -s 2 -d 0 -p ack -e 40 -c 0 -i 105 -a 0 -x {2.0 0.1 17 ------- null}
- -t 0.24808 -s 2 -d 0 -p ack -e 40 -c 0 -i 105 -a 0 -x {2.0 0.1 17 ------- null}
h -t 0.24808 -s 2 -d 0 -p ack -e 40 -c 0 -i 105 -a 0 -x {2.0 0.1 -1 ------- null}
r -t 0.2504 -s 1 -d 0 -p ack -e 40 -c 0 -i 104 -a 0 -x {1.0 0.0 17 ------- null}
+ -t 0.2504 -s 0 -d 1 -p tcp -e 1040 -c 0 -i 106 -a 0 -x {0.0 1.0 35 ------- null}
+ -t 0.2504 -s 0 -d 1 -p tcp -e 1040 -c 0 -i 107 -a 0 -x {0.0 1.0 36 ------- null}
r -t 0.2504 -s 2 -d 0 -p ack -e 40 -c 0 -i 105 -a 0 -x {2.0 0.1 17 ------- null}
+ -t 0.2504 -s 0 -d 2 -p tcp -e 1040 -c 0 -i 108 -a 0 -x {0.1 2.0 35 ------- null}
+ -t 0.2504 -s 0 -d 2 -p tcp -e 1040 -c 0 -i 109 -a 0 -x {0.1 2.0 36 ------- null}
- -t 0.2544 -s 0 -d 1 -p tcp -e 1040 -c 0 -i 58 -a 0 -x {0.0 1.0 19 ------- null}
h -t 0.2544 -s 0 -d 1 -p tcp -e 1040 -c 0 -i 58 -a 0 -x {0.0 1.0 -1 ------- null}
- -t 0.2544 -s 0 -d 2 -p tcp -e 1040 -c 0 -i 60 -a 0 -x {0.1 2.0 19 ------- null}
h -t 0.2544 -s 0 -d 2 -p tcp -e 1040 -c 0 -i 60 -a 0 -x {0.1 2.0 -1 ------- null}
r -t 0.2564 -s 0 -d 1 -p tcp -e 1040 -c 0 -i 53 -a 0 -x {0.0 1.0 18 ------- null}
+ -t 0.2564 -s 1 -d 0 -p ack -e 40 -c 0 -i 110 -a 0 -x {1.0 0.0 18 ------- null}
- -t 0.2564 -s 1 -d 0 -p ack -e 40 -c 0 -i 110 -a 0 -x {1.0 0.0 18 ------- null}
h -t 0.2564 -s 1 -d 0 -p ack -e 40 -c 0 -i 110 -a 0 -x {1.0 0.0 -1 ------- null}
r -t 0.2564 -s 0 -d 2 -p tcp -e 1040 -c 0 -i 55 -a 0 -x {0.1 2.0 18 ------- null}
+ -t 0.2564 -s 2 -d 0 -p ack -e 40 -c 0 -i 111 -a 0 -x {2.0 0.1 18 ------- null}
- -t 0.2564 -s 2 -d 0 -p ack -e 40 -c 0 -i 111 -a 0 -x {2.0 0.1 18 ------- null}
h -t 0.2564 -s 2 -d 0 -p ack -e 40 -c 0 -i 111 -a 0 -x {2.0 0.1 -1 ------- null}
r -t 0.25872 -s 1 -d 0 -p ack -e 40 -c 0 -i 110 -a 0 -x {1.0 0.0 18 ------- null}
+ -t 0.25872 -s 0 -d 1 -p tcp -e 1040 -c 0 -i 112 -a 0 -x {0.0 1.0 37 ------- null}
+ -t 0.25872 -s 0 -d 1 -p tcp -e 1040 -c 0 -i 113 -a 0 -x {0.0 1.0 38 ------- null}
r -t 0.25872 -s 2 -d 0 -p ack -e 40 -c 0 -i 111 -a 0 -x {2.0 0.1 18 ------- null}
+ -t 0.25872 -s 0 -d 2 -p tcp -e 1040 -c 0 -i 114 -a 0 -x {0.1 2.0 37 ------- null}
+ -t 0.25872 -s 0 -d 2 -p tcp -e 1040 -c 0 -i 115 -a 0 -x {0.1 2.0 38 ------- null}
- -t 0.26272 -s 0 -d 1 -p tcp -e 1040 -c 0 -i 59 -a 0 -x {0.0 1.0 20 ------- null}
h -t 0.26272 -s 0 -d 1 -p tcp -e 1040 -c 0 -i 59 -a 0 -x {0.0 1.0 -1 ------- null}
- -t 0.26272 -s 0 -d 2 -p tcp -e 1040 -c 0 -i 61 -a 0 -x {0.1 2.0 20 ------- null}
h -t 0.26272 -s 0 -d 2 -p tcp -e 1040 -c 0 -i 61 -a 0 -x {0.1 2.0 -1 ------- null}
r -t 0.26472 -s 0 -d 1 -p tcp -e 1040 -c 0 -i 58 -a 0 -x {0.0 1.0 19 ------- null}
+ -t 0.26472 -s 1 -d 0 -p ack -e 40 -c 0 -i 116 -a 0 -x {1.0 0.0 19 ------- null}
- -t 0.26472 -s 1 -d 0 -p ack -e 40 -c 0 -i 116 -a 0 -x {1.0 0.0 19 ------- null}
h -t 0.26472 -s 1 -d 0 -p ack -e 40 -c 0 -i 116 -a 0 -x {1.0 0.0 -1 ------- null}
r -t 0.26472 -s 0 -d 2 -p tcp -e 1040 -c 0 -i 60 -a 0 -x {0.1 2.0 19 ------- null}
+ -t 0.26472 -s 2 -d 0 -p ack -e 40 -c 0 -i 117 -a 0 -x {2.0 0.1 19 ------- null}
- -t 0.26472 -s 2 -d 0 -p ack -e 40 -c 0 -i 117 -a 0 -x {2.0 0.1 19 ------- null}
h -t 0.26472 -s 2 -d 0 -p ack -e 40 -c 0 -i 117 -a 0 -x {2.0 0.1 -1 ------- null}
r -t 0.26704 -s 1 -d 0 -p ack -e 40 -c 0 -i 116 -a 0 -x {1.0 0.0 19 ------- null}
+ -t 0.26704 -s 0 -d 1 -p tcp -e 1040 -c 0 -i 118 -a 0 -x {0.0 1.0 39 ------- null}
r -t 0.26704 -s 2 -d 0 -p ack -e 40 -c 0 -i 117 -a 0 -x {2.0 0.1 19 ------- null}